                         Program Version 6.0.0  -   RELEASE  -
|  1> ! wb97x-v def2-tzvp def2/J RIJCOSX DEFGRID2 scfconv7 GCP(DFT/TZ) printgap
|  2> %output
|  3>     printlevel normal
|  4> end
|  5> %cpcm
|  6>     smd true
|  7>     smdsolvent "water"
|  8> end
|  9> * xyz 0 1
| 10> C -3.3699257957852504 -0.44801938771576444 1.6959506868341603
| 11> N -2.3332346668107418 0.012598203740461169 0.7782913194169532
| 12> C -2.359159521695124 -0.3447603519940325 -0.5095927243204378
| 13> O -3.2287877395847087 -1.0252573381202994 -1.042542939608984
| 14> O -1.3277816942167184 0.11317828759730662 -1.3151003169422766
| 15> C -0.2176931859526173 0.7450461786267081 -0.7355206753716483
| 16> C -0.17435133243747533 2.1142554895002545 -0.6936205498293044
| 17> C 0.967461650513552 2.753628201127643 -0.16630705072530017
| 18> C 2.0269640736966523 2.014711546498585 0.30233947642714126
| 19> C 1.9964225700367673 0.5988887713640577 0.26341675973771617
| 20> C 0.8476146653024433 -0.06657352521748662 -0.27271391210220153
| 21> C 0.8165892508009818 -1.480641966039571 -0.31708852600131565
| 22> C 1.8822970397239025 -2.209662908829476 0.15575839497625055
| 23> C 3.017737112733807 -1.5605602405296806 0.6870515255346055
| 24> C 3.0738994730191407 -0.18823271721422688 0.7384107082068967
| 25> H -3.3410216067788636 -1.5361678605725362 1.8105262477498796
| 26> H -4.360883949331756 -0.15501807807413806 1.3382349909733762
| 27> H -3.193166747184023 0.01495417187355843 2.6672335072308986
| 28> H -1.5746125737179497 0.5772290880665198 1.1308517380828897
| 29> H -1.016150604343922 2.690021852349616 -1.063604049555854
| 30> H 0.9985306356384603 3.837584873113233 -0.13518234099009968
| 31> H 2.905183798372806 2.5060386742710055 0.7101706103938177
| 32> H -0.052630823575831195 -1.9841105041743592 -0.7272555463056012
| 33> H 1.85348906714033 -3.29388681710881 0.11940912656224252
| 34> H 3.8493830636589808 -2.1529777021010736 1.0548231077786376
| 35> H 3.946111937301226 0.3155999536446899 1.1446213727421108
| 36> *
| 37>
| 38>                          ****END OF INPUT****

CARTESIAN COORDINATES (ANGSTROEM)
---------------------------------
  C     -3.369926   -0.448019    1.695951
  N     -2.333235    0.012598    0.778291
  C     -2.359160   -0.344760   -0.509593
  O     -3.228788   -1.025257   -1.042543
  O     -1.327782    0.113178   -1.315100
  C     -0.217693    0.745046   -0.735521
  C     -0.174351    2.114255   -0.693621
  C      0.967462    2.753628   -0.166307
  C      2.026964    2.014712    0.302339
  C      1.996423    0.598889    0.263417
  C      0.847615   -0.066574   -0.272714
  C      0.816589   -1.480642   -0.317089
  C      1.882297   -2.209663    0.155758
  C      3.017737   -1.560560    0.687052
  C      3.073899   -0.188233    0.738411
  H     -3.341022   -1.536168    1.810526
  H     -4.360884   -0.155018    1.338235
  H     -3.193167    0.014954    2.667234
  H     -1.574613    0.577229    1.130852
  H     -1.016151    2.690022   -1.063604
  H      0.998531    3.837585   -0.135182
  H      2.905184    2.506039    0.710171
  H     -0.052631   -1.984111   -0.727256
  H      1.853489   -3.293887    0.119409
  H      3.849383   -2.152978    1.054823
  H      3.946112    0.315600    1.144621

 Total Charge           Charge          ....    0
 Multiplicity           Mult            ....    1
 Number of Electrons    NEL             ....  106
 Basis Dimension        Dim             ....  531

ORBITAL ENERGIES
----------------

  NO   OCC          E(Eh)            E(eV)
   0   2.0000     -21.729850      -591.2993
   1   2.0000     -21.657028      -589.3177
   2   2.0000     -16.563202      -450.7076
   3   2.0000     -12.211650      -332.2959
   4   2.0000     -12.120943      -329.8276
   5   2.0000     -12.074789      -328.5717
   6   2.0000     -12.072033      -328.4967
   7   2.0000     -12.069473      -328.4270
   8   2.0000     -12.060612      -328.1859
   9   2.0000     -12.058337      -328.1240
  10   2.0000     -12.057487      -328.1009
  11   2.0000     -12.056308      -328.0688
  12   2.0000     -12.055797      -328.0549
  13   2.0000     -12.055134      -328.0369
  14   2.0000     -12.053254      -327.9857
  15   2.0000      -1.767342       -48.0918
  16   2.0000      -1.704774       -46.3893
  17   2.0000      -1.531283       -41.6683
  18   2.0000      -1.413911       -38.4745
  19   2.0000      -1.360279       -37.0151
  20   2.0000      -1.320161       -35.9234
  21   2.0000      -1.280880       -34.8545
  22   2.0000      -1.271584       -34.6015
  23   2.0000      -1.241867       -33.7929
  24   2.0000      -1.194038       -32.4914
  25   2.0000      -1.139857       -31.0171
  26   2.0000      -1.133982       -30.8572
  27   2.0000      -1.124196       -30.5909
  28   2.0000      -1.075623       -29.2692
  29   2.0000      -1.061214       -28.8771
  30   2.0000      -1.030184       -28.0327
  31   2.0000      -1.017849       -27.6971
  32   2.0000      -0.997083       -27.1320
  33   2.0000      -0.969042       -26.3690
  34   2.0000      -0.964506       -26.2455
  35   2.0000      -0.953873       -25.9562
  36   2.0000      -0.925921       -25.1956
  37   2.0000      -0.915951       -24.9243
  38   2.0000      -0.906695       -24.6724
  39   2.0000      -0.895374       -24.3644
  40   2.0000      -0.889631       -24.2081
  41   2.0000      -0.873977       -23.7821
  42   2.0000      -0.863708       -23.5027
  43   2.0000      -0.845722       -23.0133
  44   2.0000      -0.830189       -22.5906
  45   2.0000      -0.823678       -22.4134
  46   2.0000      -0.808913       -22.0116
  47   2.0000      -0.808386       -21.9973
  48   2.0000      -0.762070       -20.7370
  49   2.0000      -0.736747       -20.0479
  50   2.0000      -0.693071       -18.8594
  51   2.0000      -0.638347       -17.3703
  52   2.0000      -0.610325       -16.6078
  53   0.0000      -0.297427        -8.0934
  54   0.0000      -0.285942        -7.7809
  55   0.0000      -0.265718        -7.2306
  56   0.0000      -0.219420        -5.9707
  57   0.0000      -0.207280        -5.6404

MULLIKEN ATOMIC CHARGES
-----------------------
   0 C :   -0.293625
   1 N :   -0.271256
   2 C :    0.416503
   3 O :   -0.516310
   4 O :   -0.265556
   5 C :    0.143995
   6 C :   -0.183504
   7 C :   -0.134239
   8 C :   -0.266000
   9 C :    0.092240
  10 C :    0.130019
  11 C :   -0.266018
  12 C :   -0.136512
  13 C :   -0.152069
  14 C :   -0.214297
  15 H :    0.150230
  16 H :    0.149309
  17 H :    0.161022
  18 H :    0.293993
  19 H :    0.169045
  20 H :    0.166788
  21 H :    0.164373
  22 H :    0.168757
  23 H :    0.164985
  24 H :    0.164237
  25 H :    0.163890
Sum of atomic charges:   -0.0000000

LOEWDIN ATOMIC CHARGES
----------------------
   0 C :   -0.283238
   1 N :    0.119269
   2 C :   -0.552390
   3 O :   -0.035665
   4 O :    0.277679
   5 C :   -0.206106
   6 C :   -0.108501
   7 C :   -0.135706
   8 C :   -0.099568
   9 C :   -0.096352
  10 C :   -0.082459
  11 C :   -0.102129
  12 C :   -0.136685
  13 C :   -0.139723
  14 C :   -0.099366
  15 H :    0.120844
  16 H :    0.121765
  17 H :    0.128584
  18 H :    0.207464
  19 H :    0.162314
  20 H :    0.155728
  21 H :    0.158896
  22 H :    0.159398
  23 H :    0.154056
  24 H :    0.153607
  25 H :    0.158283

  Mayer bond orders larger than 0.100000
B(  0-C ,  1-N ) :   0.9233 B(  0-C , 15-H ) :   0.9735 B(  0-C , 16-H ) :   0.9703
B(  0-C , 17-H ) :   0.9643 B(  1-N ,  2-C ) :   1.3074 B(  1-N , 18-H ) :   0.8879
B(  2-C ,  3-O ) :   1.9503 B(  2-C ,  4-O ) :   1.0916 B(  4-O ,  5-C ) :   0.9494
B(  5-C ,  6-C ) :   1.6005 B(  5-C , 10-C ) :   1.1579 B(  6-C ,  7-C ) :   1.2260
B(  6-C , 19-H ) :   0.9787 B(  7-C ,  8-C ) :   1.5414 B(  7-C , 20-H ) :   0.9806
B(  8-C ,  9-C ) :   1.2045 B(  8-C , 21-H ) :   0.9886 B(  9-C , 10-C ) :   1.2499
B(  9-C , 14-C ) :   1.2174 B( 10-C , 11-C ) :   1.1935 B( 11-C , 12-C ) :   1.5619
B( 11-C , 22-H ) :   0.9720 B( 12-C , 13-C ) :   1.2507 B( 12-C , 23-H ) :   0.9781
B( 13-C , 14-C ) :   1.5422 B( 13-C , 24-H ) :   0.9786 B( 14-C , 25-H ) :   0.9845

FINAL SINGLE POINT ENERGY      -669.183460735658

DIPOLE MOMENT
-------------

Method             : SCF
Type of density    : Electron Density
Multiplicity       :   1
Irrep              :   0
Energy             :  -669.1981264413581130 Eh
Relativity type    :
Basis              : AO
                                X                 Y                 Z
Electronic contribution:      1.494601572       1.034206911      -5.399648684
Nuclear contribution   :      0.107048469       0.262824643       7.774479430
                        -----------------------------------------
Total Dipole Moment    :      1.601650041       1.297031554       2.374830746
                        -----------------------------------------
Magnitude (a.u.)       :      3.144422805
Magnitude (Debye)      :      7.992487597

Rotational constants in cm-1:             0.032251             0.015459             0.012466
Rotational constants in MHz :           966.872075           463.454568           373.725390

                             ****ORCA TERMINATED NORMALLY****
TOTAL RUN TIME: 0 days 0 hours 8 minutes 37 seconds 939 msec
