                         Program Version 6.0.0  -   RELEASE  -
|  1> ! pbe def2-sv(p) def2/J RI DEFGRID1 loosescf d4 GCP(DFT/SV(P)) printgap
|  2> %output
|  3>     printlevel normal
|  4> end
|  5> * xyz 0 1
|  6> C -2.377197958 -0.7856305801 -0.0878846497
|  7> C -1.0116204746 -0.2718367792 0.388148604
|  8> H -1.1244775444 0.0897739935 1.4213877561
|  9> C -0.5145796337 0.8797840971 -0.5001542747
| 10> H -0.4418373908 0.5197130118 -1.532516734
| 11> C 0.8769002089 1.3466922024 -0.0316303984
| 12> H 0.7640199627 2.0006027419 0.8424174048
| 13> C 1.7641163965 0.1497582959 0.4052913431
| 14> H 2.7619153473 0.2943424545 -0.0201828034
| 15> C 1.1832665878 -1.1711024172 -0.1136357608
| 16> H 1.7711606835 -2.0070595691 0.2927551303
| 17> O -0.1080276697 -1.3847489796 0.402875474
| 18> O 1.2182317768 -1.1583532078 -1.5048033504
| 19> O 1.9427193862 0.0919275441 1.7971692551
| 20> O 1.5099926502 2.1443638635 -0.9968807905
| 21> O -1.4432278553 1.9296368163 -0.5467755392
| 22> O -2.9603470225 -1.6709089902 0.8326305003
| 23> H -2.2569884179 -1.2638056006 -1.0678263245
| 24> H -3.0610519018 0.0587756965 -0.187814637
| 25> H 1.0357658352 -2.04227214 -1.8583286824
| 26> H 1.1652684251 -0.3089879545 2.2133715792
| 27> H 1.5854786141 1.6507501581 -1.8264681864
| 28> H -1.4317826148 2.4247548483 0.2853918865
| 29> H -2.3540529072 -2.413019557 0.9717573479
| 30> *
| 31>
| 32>                          ****END OF INPUT****

CARTESIAN COORDINATES (ANGSTROEM)
---------------------------------
  C     -2.377198   -0.785631   -0.087885
  C     -1.011620   -0.271837    0.388149
  H     -1.124478    0.089774    1.421388
  C     -0.514580    0.879784   -0.500154
  H     -0.441837    0.519713   -1.532517
  C      0.876900    1.346692   -0.031630
  H      0.764020    2.000603    0.842417
  C      1.764116    0.149758    0.405291
  H      2.761915    0.294342   -0.020183
  C      1.183267   -1.171102   -0.113636
  H      1.771161   -2.007060    0.292755
  O     -0.108028   -1.384749    0.402875
  O      1.218232   -1.158353   -1.504803
  O      1.942719    0.091928    1.797169
  O      1.509993    2.144364   -0.996881
  O     -1.443228    1.929637   -0.546776
  O     -2.960347   -1.670909    0.832631
  H     -2.256988   -1.263806   -1.067826
  H     -3.061052    0.058776   -0.187815
  H      1.035766   -2.042272   -1.858329
  H      1.165268   -0.308988    2.213372
  H      1.585479    1.650750   -1.826468
  H     -1.431783    2.424755    0.285392
  H     -2.354053   -2.413020    0.971757

 Total Charge           Charge          ....    0
 Multiplicity           Mult            ....    1
 Number of Electrons    NEL             ....   96
 Basis Dimension        Dim             ....  192

ORBITAL ENERGIES
----------------

  NO   OCC          E(Eh)            E(eV)
   0   2.0000     -18.786211      -511.1988
   1   2.0000     -18.784083      -511.1409
   2   2.0000     -18.759453      -510.4707
   3   2.0000     -18.757682      -510.4225
   4   2.0000     -18.747355      -510.1415
   5   2.0000     -18.746141      -510.1084
   6   2.0000      -9.999478      -272.0996
   7   2.0000      -9.949945      -270.7518
   8   2.0000      -9.946495      -270.6579
   9   2.0000      -9.946340      -270.6537
  10   2.0000      -9.944336      -270.5991
  11   2.0000      -9.930703      -270.2282
  12   2.0000      -0.996381       -27.1129
  13   2.0000      -0.945519       -25.7289
  14   2.0000      -0.936799       -25.4916
  15   2.0000      -0.933995       -25.4153
  16   2.0000      -0.920601       -25.0508
  17   2.0000      -0.916930       -24.9509
  18   2.0000      -0.708203       -19.2712
  19   2.0000      -0.695022       -18.9125
  20   2.0000      -0.623541       -16.9674
  21   2.0000      -0.598400       -16.2833
  22   2.0000      -0.571752       -15.5582
  23   2.0000      -0.540489       -14.7075
  24   2.0000      -0.514849       -14.0098
  25   2.0000      -0.500196       -13.6110
  26   2.0000      -0.472872       -12.8675
  27   2.0000      -0.462484       -12.5848
  28   2.0000      -0.448707       -12.2099
  29   2.0000      -0.432603       -11.7717
  30   2.0000      -0.421128       -11.4595
  31   2.0000      -0.400213       -10.8903
  32   2.0000      -0.393457       -10.7065
  33   2.0000      -0.376996       -10.2586
  34   2.0000      -0.367543       -10.0013
  35   2.0000      -0.358685        -9.7603
  36   2.0000      -0.341537        -9.2937
  37   2.0000      -0.321354        -8.7445
  38   2.0000      -0.297043        -8.0830
  39   2.0000      -0.294490        -8.0135
  40   2.0000      -0.283849        -7.7239
  41   2.0000      -0.279337        -7.6012
  42   2.0000      -0.269478        -7.3329
  43   2.0000      -0.253409        -6.8956
  44   2.0000      -0.243769        -6.6333
  45   2.0000      -0.226985        -6.1766
  46   2.0000      -0.215973        -5.8769
  47   2.0000      -0.201448        -5.4817
  48   0.0000       0.004905         0.1335
  49   0.0000       0.015331         0.4172
  50   0.0000       0.023375         0.6361
  51   0.0000       0.045645         1.2421
  52   0.0000       0.055049         1.4979

MULLIKEN ATOMIC CHARGES
-----------------------
   0 C :    0.097792
   1 C :   -0.028963
   2 H :    0.043126
   3 C :    0.074617
   4 H :    0.060927
   5 C :    0.083785
   6 H :    0.050599
   7 C :    0.060547
   8 H :    0.080062
   9 C :    0.124191
  10 H :    0.074245
  11 O :   -0.331248
  12 O :   -0.390058
  13 O :   -0.419182
  14 O :   -0.413569
  15 O :   -0.400826
  16 O :   -0.432950
  17 H :    0.058570
  18 H :    0.092157
  19 H :    0.311767
  20 H :    0.304671
  21 H :    0.302460
  22 H :    0.299866
  23 H :    0.297415
Sum of atomic charges:    0.0000000

LOEWDIN ATOMIC CHARGES
----------------------
   0 C :   -0.127008
   1 C :   -0.083809
   2 H :    0.097739
   3 C :   -0.086341
   4 H :    0.117878
   5 C :   -0.074966
   6 H :    0.114133
   7 C :   -0.082194
   8 H :    0.124988
   9 C :   -0.017562
  10 H :    0.101873
  11 O :   -0.162015
  12 O :   -0.309098
  13 O :   -0.308649
  14 O :   -0.309855
  15 O :   -0.301782
  16 O :   -0.336610
  17 H :    0.097151
  18 H :    0.119845
  19 H :    0.292421
  20 H :    0.282302
  21 H :    0.285134
  22 H :    0.285128
  23 H :    0.281297

  Mayer bond orders larger than 0.100000
B(  0-C ,  1-C ) :   1.0569 B(  0-C , 16-O ) :   1.0777 B(  0-C , 17-H ) :   0.9069
B(  0-C , 18-H ) :   0.9080 B(  1-C ,  2-H ) :   0.8720 B(  1-C ,  3-C ) :   0.9860
B(  1-C , 11-O ) :   0.9400 B(  3-C ,  4-H ) :   0.8325 B(  3-C ,  5-C ) :   1.0418
B(  3-C , 15-O ) :   1.0388 B(  5-C ,  6-H ) :   0.8636 B(  5-C ,  7-C ) :   0.9385
B(  5-C , 14-O ) :   1.0563 B(  7-C ,  8-H ) :   0.8750 B(  7-C ,  9-C ) :   1.0531
B(  7-C , 13-O ) :   1.0464 B(  9-C , 10-H ) :   0.8977 B(  9-C , 11-O ) :   1.0481
B(  9-C , 12-O ) :   1.1268 B( 12-O , 19-H ) :   0.8370 B( 13-O , 20-H ) :   0.8402
B( 14-O , 21-H ) :   0.8471 B( 15-O , 22-H ) :   0.8459 B( 16-O , 23-H ) :   0.8481

Dispersion correction           -0.024584030
FINAL SINGLE POINT ENERGY      -685.689458398181

DIPOLE MOMENT
-------------

Method             : SCF
Type of density    : Electron Density
Multiplicity       :   1
Irrep              :   0
Energy             :  -685.8196840171036683 Eh
Relativity type    :
Basis              : AO
                                X                 Y                 Z
Electronic contribution:      1.732602878      -0.058639182       0.218750846
Nuclear contribution   :     -1.486123177      -0.935534973      -0.437473898
                        -----------------------------------------
Total Dipole Moment    :      0.246479701      -0.994174155      -0.218723051
                        -----------------------------------------
Magnitude (a.u.)       :      1.047365393
Magnitude (Debye)      :      2.662191261

Rotational constants in cm-1:             0.040405             0.025573             0.020726
Rotational constants in MHz :          1211.313325           766.654208           621.343274

                             ****ORCA TERMINATED NORMALLY****
TOTAL RUN TIME: 0 days 0 hours 0 minutes 12 seconds 3 msec
