                         Program Version 6.0.0  -   RELEASE  -
|  1> ! wb97x-v def2-tzvp def2/J RIJCOSX DEFGRID2 scfconv7 GCP(DFT/TZ) printgap
|  2> %output
|  3>     printlevel normal
|  4> end
|  5> * xyz 0 1
|  6> C -2.7703608848457923 -0.7873704401998568 -0.00014388096570561369
|  7> O -1.7906995519528404 0.26339691169500523 8.979455568932748e-05
|  8> C -0.47153517543244416 -0.11039506232519171 4.604596921626348e-05
|  9> C 0.0008741069233933617 -1.418744121323977 4.5655163268221096e-05
| 10> C 1.3781334735574722 -1.658452073561889 2.7432308259717113e-06
| 11> C 2.2758610942041493 -0.5980102036813795 -4.3131122087997465e-05
| 12> C 1.8045557682846627 0.715949356691091 -4.381577883405719e-05
| 13> C 0.44023864144609653 0.9613758654400807 1.0187014107843855e-06
| 14> O -0.00926269162801529 2.2626907689741955 -4.808208812691663e-06
| 15> H -2.674195580007128 -1.407820606601716 -0.8978192565067931
| 16> H -3.738978917916627 -0.2870970111107285 -0.00018339322773348302
| 17> H -2.6743960876076454 -1.4080512911315997 0.8973934095495019
| 18> H -0.6912161177447614 -2.2523298139429437 8.240535316845055e-05
| 19> H 1.7373911223873002 -2.6821711664447707 4.049732464880814e-06
| 20> H 3.3448445564758207 -0.782923536504458 -8.235329812265592e-05
| 21> H 2.4886777147810255 1.5587547072659844 -8.761823521378576e-05
| 22> H -0.9785904252976361 2.249580497074632 -7.749605031497362e-06
| 23> *
| 24>
| 25>                          ****END OF INPUT****

CARTESIAN COORDINATES (ANGSTROEM)
---------------------------------
  C     -2.770361   -0.787370   -0.000144
  O     -1.790700    0.263397    0.000090
  C     -0.471535   -0.110395    0.000046
  C      0.000874   -1.418744    0.000046
  C      1.378133   -1.658452    0.000003
  C      2.275861   -0.598010   -0.000043
  C      1.804556    0.715949   -0.000044
  C      0.440239    0.961376    0.000001
  O     -0.009263    2.262691   -0.000005
  H     -2.674196   -1.407821   -0.897819
  H     -3.738979   -0.287097   -0.000183
  H     -2.674396   -1.408051    0.897393
  H     -0.691216   -2.252330    0.000082
  H      1.737391   -2.682171    0.000004
  H      3.344845   -0.782924   -0.000082
  H      2.488678    1.558755   -0.000088
  H     -0.978590    2.249580   -0.000008

 Total Charge           Charge          ....    0
 Multiplicity           Mult            ....    1
 Number of Electrons    NEL             ....   66
 Basis Dimension        Dim             ....  327

ORBITAL ENERGIES
----------------

  NO   OCC          E(Eh)            E(eV)
   0   2.0000     -21.716145      -590.9264
   1   2.0000     -21.694872      -590.3475
   2   2.0000     -12.112422      -329.5957
   3   2.0000     -12.111879      -329.5810
   4   2.0000     -12.107605      -329.4647
   5   2.0000     -12.053863      -328.0023
   6   2.0000     -12.047734      -327.8355
   7   2.0000     -12.046355      -327.7980
   8   2.0000     -12.044709      -327.7532
   9   2.0000      -1.730765       -47.0965
  10   2.0000      -1.706294       -46.4306
  11   2.0000      -1.386241       -37.7215
  12   2.0000      -1.301222       -35.4081
  13   2.0000      -1.281462       -34.8704
  14   2.0000      -1.234041       -33.5800
  15   2.0000      -1.147451       -31.2237
  16   2.0000      -1.117915       -30.4200
  17   2.0000      -1.087607       -29.5953
  18   2.0000      -1.038808       -28.2674
  19   2.0000      -1.006526       -27.3890
  20   2.0000      -0.991580       -26.9823
  21   2.0000      -0.984683       -26.7946
  22   2.0000      -0.937996       -25.5242
  23   2.0000      -0.930941       -25.3322
  24   2.0000      -0.920670       -25.0527
  25   2.0000      -0.896056       -24.3829
  26   2.0000      -0.847337       -23.0572
  27   2.0000      -0.837321       -22.7847
  28   2.0000      -0.834903       -22.7189
  29   2.0000      -0.820268       -22.3206
  30   2.0000      -0.764103       -20.7923
  31   2.0000      -0.641648       -17.4601
  32   2.0000      -0.633986       -17.2516
  33   0.0000      -0.246938        -6.7195
  34   0.0000      -0.244481        -6.6527
  35   0.0000      -0.205350        -5.5879
  36   0.0000      -0.145766        -3.9665
  37   0.0000      -0.090036        -2.4500

MULLIKEN ATOMIC CHARGES
-----------------------
   0 C :   -0.218424
   1 O :   -0.313258
   2 C :    0.305069
   3 C :   -0.239318
   4 C :   -0.153499
   5 C :   -0.118122
   6 C :   -0.193485
   7 C :    0.124176
   8 O :   -0.396552
   9 H :    0.128808
  10 H :    0.137128
  11 H :    0.128806
  12 H :    0.131976
  13 H :    0.115383
  14 H :    0.115242
  15 H :    0.120750
  16 H :    0.325320
Sum of atomic charges:   -0.0000000

LOEWDIN ATOMIC CHARGES
----------------------
   0 C :   -0.304713
   1 O :    0.195299
   2 C :   -0.237414
   3 C :   -0.144509
   4 C :   -0.158223
   5 C :   -0.152281
   6 C :   -0.120048
   7 C :   -0.237150
   8 O :    0.065930
   9 H :    0.108423
  10 H :    0.113003
  11 H :    0.108420
  12 H :    0.145205
  13 H :    0.140690
  14 H :    0.141340
  15 H :    0.148616
  16 H :    0.187411

  Mayer bond orders larger than 0.100000
B(  0-C ,  1-O ) :   0.9489 B(  0-C ,  9-H ) :   0.9740 B(  0-C , 10-H ) :   0.9773
B(  0-C , 11-H ) :   0.9740 B(  1-O ,  2-C ) :   1.0382 B(  2-C ,  3-C ) :   1.3470
B(  2-C ,  7-C ) :   1.2626 B(  3-C ,  4-C ) :   1.4043 B(  3-C , 12-H ) :   0.9549
B(  4-C ,  5-C ) :   1.4786 B(  4-C , 13-H ) :   0.9673 B(  5-C ,  6-C ) :   1.4026
B(  5-C , 14-H ) :   0.9758 B(  6-C ,  7-C ) :   1.4827 B(  6-C , 15-H ) :   0.9729
B(  7-C ,  8-O ) :   1.2045 B(  8-O , 16-H ) :   0.8710

FINAL SINGLE POINT ENERGY      -422.018640264076

DIPOLE MOMENT
-------------

Method             : SCF
Type of density    : Electron Density
Multiplicity       :   1
Irrep              :   0
Energy             :  -422.0287236591756255 Eh
Relativity type    :
Basis              : AO
                                X                 Y                 Z
Electronic contribution:      2.181964663       3.981060561       0.000483015
Nuclear contribution   :     -3.010797802      -4.700229364      -0.000596926
                        -----------------------------------------
Total Dipole Moment    :     -0.828833139      -0.719168803      -0.000113911
                        -----------------------------------------
Magnitude (a.u.)       :      1.097345959
Magnitude (Debye)      :      2.789231763

Rotational constants in cm-1:             0.086179             0.051907             0.032598
Rotational constants in MHz :          2583.578495          1556.129673           977.276347

                             ****ORCA TERMINATED NORMALLY****
TOTAL RUN TIME: 0 days 0 hours 3 minutes 4 seconds 102 msec
