                         Program Version 6.0.0  -   RELEASE  -
|  1> ! wb97x-v def2-tzvp def2/J RIJCOSX DEFGRID2 scfconv7 GCP(DFT/TZ) printgap
|  2> %output
|  3>     printlevel normal
|  4> end
|  5> %cpcm
|  6>     smd true
|  7>     smdsolvent "water"
|  8> end
|  9> * xyz 0 1
| 10> C -2.7703608848457923 -0.7873704401998568 -0.00014388096570561369
| 11> O -1.7906995519528404 0.26339691169500523 8.979455568932748e-05
| 12> C -0.47153517543244416 -0.11039506232519171 4.604596921626348e-05
| 13> C 0.0008741069233933617 -1.418744121323977 4.5655163268221096e-05
| 14> C 1.3781334735574722 -1.658452073561889 2.7432308259717113e-06
| 15> C 2.2758610942041493 -0.5980102036813795 -4.3131122087997465e-05
| 16> C 1.8045557682846627 0.715949356691091 -4.381577883405719e-05
| 17> C 0.44023864144609653 0.9613758654400807 1.0187014107843855e-06
| 18> O -0.00926269162801529 2.2626907689741955 -4.808208812691663e-06
| 19> H -2.674195580007128 -1.407820606601716 -0.8978192565067931
| 20> H -3.738978917916627 -0.2870970111107285 -0.00018339322773348302
| 21> H -2.6743960876076454 -1.4080512911315997 0.8973934095495019
| 22> H -0.6912161177447614 -2.2523298139429437 8.240535316845055e-05
| 23> H 1.7373911223873002 -2.6821711664447707 4.049732464880814e-06
| 24> H 3.3448445564758207 -0.782923536504458 -8.235329812265592e-05
| 25> H 2.4886777147810255 1.5587547072659844 -8.761823521378576e-05
| 26> H -0.9785904252976361 2.249580497074632 -7.749605031497362e-06
| 27> *
| 28>
| 29>                          ****END OF INPUT****

CARTESIAN COORDINATES (ANGSTROEM)
---------------------------------
  C     -2.770361   -0.787370   -0.000144
  O     -1.790700    0.263397    0.000090
  C     -0.471535   -0.110395    0.000046
  C      0.000874   -1.418744    0.000046
  C      1.378133   -1.658452    0.000003
  C      2.275861   -0.598010   -0.000043
  C      1.804556    0.715949   -0.000044
  C      0.440239    0.961376    0.000001
  O     -0.009263    2.262691   -0.000005
  H     -2.674196   -1.407821   -0.897819
  H     -3.738979   -0.287097   -0.000183
  H     -2.674396   -1.408051    0.897393
  H     -0.691216   -2.252330    0.000082
  H      1.737391   -2.682171    0.000004
  H      3.344845   -0.782924   -0.000082
  H      2.488678    1.558755   -0.000088
  H     -0.978590    2.249580   -0.000008

 Total Charge           Charge          ....    0
 Multiplicity           Mult            ....    1
 Number of Electrons    NEL             ....   66
 Basis Dimension        Dim             ....  327

ORBITAL ENERGIES
----------------

  NO   OCC          E(Eh)            E(eV)
   0   2.0000     -21.709917      -590.7569
   1   2.0000     -21.702135      -590.5451
   2   2.0000     -12.113198      -329.6169
   3   2.0000     -12.110932      -329.5552
   4   2.0000     -12.090468      -328.9983
   5   2.0000     -12.051372      -327.9345
   6   2.0000     -12.048950      -327.8686
   7   2.0000     -12.047395      -327.8263
   8   2.0000     -12.045471      -327.7739
   9   2.0000      -1.726363       -46.9767
  10   2.0000      -1.712169       -46.5905
  11   2.0000      -1.388322       -37.7782
  12   2.0000      -1.298039       -35.3214
  13   2.0000      -1.283739       -34.9323
  14   2.0000      -1.227384       -33.3988
  15   2.0000      -1.149830       -31.2885
  16   2.0000      -1.115536       -30.3553
  17   2.0000      -1.086257       -29.5586
  18   2.0000      -1.034568       -28.1520
  19   2.0000      -1.009236       -27.4627
  20   2.0000      -0.984527       -26.7903
  21   2.0000      -0.983044       -26.7500
  22   2.0000      -0.947156       -25.7734
  23   2.0000      -0.930919       -25.3316
  24   2.0000      -0.920944       -25.0602
  25   2.0000      -0.893332       -24.3088
  26   2.0000      -0.837819       -22.7982
  27   2.0000      -0.826497       -22.4901
  28   2.0000      -0.818373       -22.2691
  29   2.0000      -0.816262       -22.2116
  30   2.0000      -0.766997       -20.8711
  31   2.0000      -0.644422       -17.5356
  32   2.0000      -0.637691       -17.3525
  33   0.0000      -0.250199        -6.8083
  34   0.0000      -0.247158        -6.7255
  35   0.0000      -0.199271        -5.4224
  36   0.0000      -0.137493        -3.7414
  37   0.0000      -0.088631        -2.4118

MULLIKEN ATOMIC CHARGES
-----------------------
   0 C :   -0.235710
   1 O :   -0.332213
   2 C :    0.286847
   3 C :   -0.275722
   4 C :   -0.197387
   5 C :   -0.178319
   6 C :   -0.242322
   7 C :    0.150337
   8 O :   -0.463298
   9 H :    0.147812
  10 H :    0.159368
  11 H :    0.147816
  12 H :    0.182412
  13 H :    0.162477
  14 H :    0.160641
  15 H :    0.155907
  16 H :    0.371355
Sum of atomic charges:   -0.0000000

LOEWDIN ATOMIC CHARGES
----------------------
   0 C :   -0.298892
   1 O :    0.188605
   2 C :   -0.240428
   3 C :   -0.140886
   4 C :   -0.167005
   5 C :   -0.165850
   6 C :   -0.135431
   7 C :   -0.250765
   8 O :    0.040574
   9 H :    0.115600
  10 H :    0.118970
  11 H :    0.115599
  12 H :    0.159568
  13 H :    0.150670
  14 H :    0.150597
  15 H :    0.155766
  16 H :    0.203306

  Mayer bond orders larger than 0.100000
B(  0-C ,  1-O ) :   0.9161 B(  0-C ,  9-H ) :   0.9707 B(  0-C , 10-H ) :   0.9693
B(  0-C , 11-H ) :   0.9707 B(  1-O ,  2-C ) :   1.0588 B(  2-C ,  3-C ) :   1.3411
B(  2-C ,  7-C ) :   1.2577 B(  3-C ,  4-C ) :   1.3733 B(  3-C , 12-H ) :   0.9541
B(  4-C ,  5-C ) :   1.4528 B(  4-C , 13-H ) :   0.9700 B(  5-C ,  6-C ) :   1.3887
B(  5-C , 14-H ) :   0.9771 B(  6-C ,  7-C ) :   1.4514 B(  6-C , 15-H ) :   0.9802
B(  7-C ,  8-O ) :   1.1586 B(  8-O , 16-H ) :   0.8402

FINAL SINGLE POINT ENERGY      -422.026296016103

DIPOLE MOMENT
-------------

Method             : SCF
Type of density    : Electron Density
Multiplicity       :   1
Irrep              :   0
Energy             :  -422.0363794112026312 Eh
Relativity type    :
Basis              : AO
                                X                 Y                 Z
Electronic contribution:      1.918372509       3.638296357       0.000445299
Nuclear contribution   :     -3.010797802      -4.700229364      -0.000596926
                        -----------------------------------------
Total Dipole Moment    :     -1.092425293      -1.061933007      -0.000151627
                        -----------------------------------------
Magnitude (a.u.)       :      1.523513950
Magnitude (Debye)      :      3.872464710

Rotational constants in cm-1:             0.086179             0.051907             0.032598
Rotational constants in MHz :          2583.578495          1556.129673           977.276347

                             ****ORCA TERMINATED NORMALLY****
TOTAL RUN TIME: 0 days 0 hours 3 minutes 22 seconds 85 msec
