                         Program Version 6.0.0  -   RELEASE  -
|  1> ! pbe def2-sv(p) def2/J RI DEFGRID1 loosescf d4 GCP(DFT/SV(P)) printgap
|  2> %output
|  3>     printlevel normal
|  4> end
|  5> * xyz 0 1
|  6> C -2.8491455199 0.2529121037 0.3588916104
|  7> C -2.1902991462 -0.0629977215 -0.9768216915
|  8> C -0.9571994546 -0.9307080298 -0.8394857163
|  9> I 0.6914051288 0.0842816833 0.1623368746
| 10> H -2.1730595916 0.8190312668 0.996534649
| 11> H -3.7466901967 0.8453769319 0.205097588
| 12> H -3.1240795086 -0.6634724626 0.8768256013
| 13> H -1.9382317092 0.8651135535 -1.4939696244
| 14> H -2.8952790437 -0.6131531079 -1.6065234133
| 15> H -0.5614854097 -1.2208608155 -1.8088508792
| 16> H -1.1556367407 -1.8161140893 -0.2413571058
| 17> *
| 18>
| 19>                          ****END OF INPUT****

CARTESIAN COORDINATES (ANGSTROEM)
---------------------------------
  C     -2.849146    0.252912    0.358892
  C     -2.190299   -0.062998   -0.976822
  C     -0.957199   -0.930708   -0.839486
  I      0.691405    0.084282    0.162337
  H     -2.173060    0.819031    0.996535
  H     -3.746690    0.845377    0.205098
  H     -3.124080   -0.663472    0.876826
  H     -1.938232    0.865114   -1.493970
  H     -2.895279   -0.613153   -1.606523
  H     -0.561485   -1.220861   -1.808851
  H     -1.155637   -1.816114   -0.241357

 Total Charge           Charge          ....    0
 Multiplicity           Mult            ....    1
 Number of Electrons    NEL             ....   50
 Basis Dimension        Dim             ....   82

ORBITAL ENERGIES
----------------

  NO   OCC          E(Eh)            E(eV)
   0   2.0000      -9.936612      -270.3890
   1   2.0000      -9.902524      -269.4614
   2   2.0000      -9.878845      -268.8171
   3   2.0000      -6.593878      -179.4285
   4   2.0000      -4.665580      -126.9569
   5   2.0000      -4.649032      -126.5066
   6   2.0000      -4.648639      -126.4959
   7   2.0000      -1.801714       -49.0271
   8   2.0000      -1.797402       -48.9098
   9   2.0000      -1.797068       -48.9007
  10   2.0000      -1.783745       -48.5382
  11   2.0000      -1.783725       -48.5376
  12   2.0000      -0.730492       -19.8777
  13   2.0000      -0.648457       -17.6454
  14   2.0000      -0.593234       -16.1427
  15   2.0000      -0.524806       -14.2807
  16   2.0000      -0.423373       -11.5206
  17   2.0000      -0.415604       -11.3092
  18   2.0000      -0.377447       -10.2709
  19   2.0000      -0.335326        -9.1247
  20   2.0000      -0.319225        -8.6866
  21   2.0000      -0.313743        -8.5374
  22   2.0000      -0.291034        -7.9194
  23   2.0000      -0.219120        -5.9626
  24   2.0000      -0.216963        -5.9039
  25   0.0000      -0.056334        -1.5329
  26   0.0000       0.035364         0.9623
  27   0.0000       0.073174         1.9912
  28   0.0000       0.078119         2.1257
  29   0.0000       0.098245         2.6734

MULLIKEN ATOMIC CHARGES
-----------------------
   0 C :   -0.287011
   1 C :   -0.169050
   2 C :   -0.349679
   3 I :   -0.052446
   4 H :    0.123183
   5 H :    0.109396
   6 H :    0.101842
   7 H :    0.111819
   8 H :    0.103966
   9 H :    0.155903
  10 H :    0.152077
Sum of atomic charges:    0.0000000

LOEWDIN ATOMIC CHARGES
----------------------
   0 C :   -0.346207
   1 C :   -0.250814
   2 C :   -0.329200
   3 I :    0.048186
   4 H :    0.121560
   5 H :    0.122819
   6 H :    0.118610
   7 H :    0.124134
   8 H :    0.128595
   9 H :    0.131863
  10 H :    0.130455

  Mayer bond orders larger than 0.100000
B(  0-C ,  1-C ) :   1.1497 B(  0-C ,  4-H ) :   0.9461 B(  0-C ,  5-H ) :   0.9526
B(  0-C ,  6-H ) :   0.9548 B(  1-C ,  2-C ) :   1.1057 B(  1-C ,  7-H ) :   0.9268
B(  1-C ,  8-H ) :   0.9069 B(  2-C ,  3-I ) :   1.0333 B(  2-C ,  9-H ) :   0.9243
B(  2-C , 10-H ) :   0.9216

Dispersion correction           -0.008190510
FINAL SINGLE POINT ENERGY      -415.906166279017

DIPOLE MOMENT
-------------

Method             : SCF
Type of density    : Electron Density
Multiplicity       :   1
Irrep              :   0
Energy             :  -415.9446915934029221 Eh
Relativity type    :
Basis              : AO
                                X                 Y                 Z
Electronic contribution:     64.169858984       7.535883993      14.342076097
Nuclear contribution   :    -64.794082441      -7.788693400     -14.660374062
                        -----------------------------------------
Total Dipole Moment    :     -0.624223457      -0.252809407      -0.318297964
                        -----------------------------------------
Magnitude (a.u.)       :      0.744903427
Magnitude (Debye)      :      1.893394041

Rotational constants in cm-1:             0.356760             0.058894             0.053530
Rotational constants in MHz :         10695.409218          1765.607186          1604.778728

                             ****ORCA TERMINATED NORMALLY****
TOTAL RUN TIME: 0 days 0 hours 0 minutes 11 seconds 614 msec
