                         Program Version 6.0.0  -   RELEASE  -
|  1> ! pbe def2-sv(p) def2/J RI DEFGRID1 loosescf d4 GCP(DFT/SV(P)) printgap
|  2> %output
|  3>     printlevel normal
|  4> end
|  5> * xyz 0 1
|  6> C -2.332329656 1.2369088676 0.0530701416
|  7> N -1.6048532642 -0.0001669793 -0.1154169706
|  8> C -2.3319630368 -1.2369793796 0.0567111689
|  9> C -0.2346264693 2.32347e-05 -0.0422617919
| 10> C 0.497794169 -1.1974731401 -0.0204107855
| 11> C 1.8774869138 -1.1902832395 0.0119118424
| 12> C 2.584432963 6.28072e-05 0.0287164294
| 13> C 1.8773846864 1.1903750395 0.0138147737
| 14> C 0.4976881244 1.1975393212 -0.0184145687
| 15> H -2.134893867 1.6999802945 1.0264651903
| 16> H -3.3976877716 1.0390575693 -0.0254099889
| 17> H -2.0627644954 1.9446478883 -0.7330358708
| 18> H -3.397612726 -1.0388857482 -0.0168687224
| 19> H -2.1301671057 -1.6994634911 1.029452504
| 20> H -2.0661923128 -1.9453545566 -0.7301790651
| 21> H -0.0082239052 -2.148441727 -0.0282508456
| 22> H 2.4084995968 -2.131850197 0.0276890008
| 23> H 3.6636635176 0.0001115089 0.0562349582
| 24> H 2.4083524645 2.1319415612 0.0314690625
| 25> H -0.0083515705 2.14850969 -0.024360693
| 26> *
| 27>
| 28>                          ****END OF INPUT****

CARTESIAN COORDINATES (ANGSTROEM)
---------------------------------
  C     -2.332330    1.236909    0.053070
  N     -1.604853   -0.000167   -0.115417
  C     -2.331963   -1.236979    0.056711
  C     -0.234626    0.000023   -0.042262
  C      0.497794   -1.197473   -0.020411
  C      1.877487   -1.190283    0.011912
  C      2.584433    0.000063    0.028716
  C      1.877385    1.190375    0.013815
  C      0.497688    1.197539   -0.018415
  H     -2.134894    1.699980    1.026465
  H     -3.397688    1.039058   -0.025410
  H     -2.062764    1.944648   -0.733036
  H     -3.397613   -1.038886   -0.016869
  H     -2.130167   -1.699463    1.029453
  H     -2.066192   -1.945355   -0.730179
  H     -0.008224   -2.148442   -0.028251
  H      2.408500   -2.131850    0.027689
  H      3.663664    0.000112    0.056235
  H      2.408352    2.131942    0.031469
  H     -0.008352    2.148510   -0.024361

 Total Charge           Charge          ....    0
 Multiplicity           Mult            ....    1
 Number of Electrons    NEL             ....   66
 Basis Dimension        Dim             ....  148

ORBITAL ENERGIES
----------------

  NO   OCC          E(Eh)            E(eV)
   0   2.0000     -14.009102      -381.2070
   1   2.0000      -9.922442      -270.0034
   2   2.0000      -9.916528      -269.8424
   3   2.0000      -9.916465      -269.8407
   4   2.0000      -9.879208      -268.8269
   5   2.0000      -9.879192      -268.8265
   6   2.0000      -9.875351      -268.7220
   7   2.0000      -9.875347      -268.7218
   8   2.0000      -9.870067      -268.5782
   9   2.0000      -0.862587       -23.4722
  10   2.0000      -0.754995       -20.5444
  11   2.0000      -0.668658       -18.1951
  12   2.0000      -0.665349       -18.1051
  13   2.0000      -0.644524       -17.5384
  14   2.0000      -0.588493       -16.0137
  15   2.0000      -0.529009       -14.3951
  16   2.0000      -0.508456       -13.8358
  17   2.0000      -0.476268       -12.9599
  18   2.0000      -0.430806       -11.7228
  19   2.0000      -0.419318       -11.4102
  20   2.0000      -0.417658       -11.3650
  21   2.0000      -0.391369       -10.6497
  22   2.0000      -0.370806       -10.0901
  23   2.0000      -0.366239        -9.9659
  24   2.0000      -0.362789        -9.8720
  25   2.0000      -0.352710        -9.5977
  26   2.0000      -0.335469        -9.1286
  27   2.0000      -0.321802        -8.7567
  28   2.0000      -0.303951        -8.2709
  29   2.0000      -0.284019        -7.7286
  30   2.0000      -0.247843        -6.7442
  31   2.0000      -0.215968        -5.8768
  32   2.0000      -0.160143        -4.3577
  33   0.0000      -0.020876        -0.5681
  34   0.0000      -0.005304        -0.1443
  35   0.0000       0.035427         0.9640
  36   0.0000       0.057915         1.5759
  37   0.0000       0.068044         1.8516

MULLIKEN ATOMIC CHARGES
-----------------------
   0 C :   -0.171807
   1 N :   -0.250699
   2 C :   -0.171806
   3 C :    0.257267
   4 C :   -0.173513
   5 C :   -0.056835
   6 C :   -0.052674
   7 C :   -0.056860
   8 C :   -0.173655
   9 H :    0.105411
  10 H :    0.110733
  11 H :    0.119410
  12 H :    0.110692
  13 H :    0.105502
  14 H :    0.119369
  15 H :    0.025521
  16 H :    0.044211
  17 H :    0.039988
  18 H :    0.044214
  19 H :    0.025532
Sum of atomic charges:    0.0000000

LOEWDIN ATOMIC CHARGES
----------------------
   0 C :   -0.248966
   1 N :   -0.067997
   2 C :   -0.248961
   3 C :    0.005246
   4 C :   -0.169612
   5 C :   -0.118075
   6 C :   -0.161246
   7 C :   -0.118073
   8 C :   -0.169663
   9 H :    0.109696
  10 H :    0.119901
  11 H :    0.117935
  12 H :    0.119916
  13 H :    0.109791
  14 H :    0.117862
  15 H :    0.121723
  16 H :    0.120200
  17 H :    0.118398
  18 H :    0.120199
  19 H :    0.121725

  Mayer bond orders larger than 0.100000
B(  0-C ,  1-N ) :   1.0459 B(  0-C ,  9-H ) :   0.9391 B(  0-C , 10-H ) :   0.9488
B(  0-C , 11-H ) :   0.9415 B(  1-N ,  2-C ) :   1.0458 B(  1-N ,  3-C ) :   1.1602
B(  2-C , 12-H ) :   0.9488 B(  2-C , 13-H ) :   0.9391 B(  2-C , 14-H ) :   0.9416
B(  3-C ,  4-C ) :   1.2984 B(  3-C ,  8-C ) :   1.2983 B(  4-C ,  5-C ) :   1.3925
B(  4-C , 15-H ) :   0.9568 B(  5-C ,  6-C ) :   1.3638 B(  5-C , 16-H ) :   0.9604
B(  6-C ,  7-C ) :   1.3639 B(  6-C , 17-H ) :   0.9680 B(  7-C ,  8-C ) :   1.3924
B(  7-C , 18-H ) :   0.9603 B(  8-C , 19-H ) :   0.9569

Dispersion correction           -0.020422327
FINAL SINGLE POINT ENERGY      -365.379948670798

DIPOLE MOMENT
-------------

Method             : SCF
Type of density    : Electron Density
Multiplicity       :   1
Irrep              :   0
Energy             :  -365.4410840343958284 Eh
Relativity type    :
Basis              : AO
                                X                 Y                 Z
Electronic contribution:      5.429750932      -0.000210583      -0.519212007
Nuclear contribution   :     -6.318330239       0.000236246       0.574657131
                        -----------------------------------------
Total Dipole Moment    :     -0.888579307       0.000025664       0.055445124
                        -----------------------------------------
Magnitude (a.u.)       :      0.890307446
Magnitude (Debye)      :      2.262981685

Rotational constants in cm-1:             0.118006             0.041316             0.030998
Rotational constants in MHz :          3537.721015          1238.627062           929.296662

                             ****ORCA TERMINATED NORMALLY****
TOTAL RUN TIME: 0 days 0 hours 0 minutes 9 seconds 734 msec
