                         Program Version 6.0.0  -   RELEASE  -
|  1> ! pbe def2-sv(p) def2/J RI DEFGRID1 loosescf d4 GCP(DFT/SV(P)) printgap
|  2> %output
|  3>     printlevel normal
|  4> end
|  5> * xyz 0 1
|  6> C -1.9176774043 -0.0259863192 0.2097158752
|  7> C -0.9445513028 -1.1858536589 0.4546176834
|  8> C 0.1863381871 -1.1595127564 -0.5685504214
|  9> C 1.0601393693 0.1007048731 -0.4141854805
| 10> C 0.2475519104 1.2570372343 0.1883638474
| 11> C -1.1883509731 1.2151744995 -0.3227894328
| 12> O 2.2352479568 -0.1566130388 0.3355562851
| 13> H -2.4272231023 0.2148329495 1.1440710744
| 14> H -2.679847881 -0.329116397 -0.509424123
| 15> H -0.5266202814 -1.1152964975 1.460324285
| 16> H -1.4771104906 -2.1357271946 0.3920415296
| 17> H 0.8269385573 -2.036648487 -0.459832176
| 18> H -0.2396733574 -1.1842642935 -1.5719365202
| 19> H 1.4425594048 0.3942500149 -1.3982734328
| 20> H 0.248004292 1.1712500978 1.2771842544
| 21> H 0.7219957334 2.2056567996 -0.0658171124
| 22> H -1.7182382813 2.1175876785 -0.0161890194
| 23> H -1.1682333089 1.2006605487 -1.4139086221
| 24> H 1.9811757253 -0.4191183651 1.2314265204
| 25> *
| 26>
| 27>                          ****END OF INPUT****

CARTESIAN COORDINATES (ANGSTROEM)
---------------------------------
  C     -1.917677   -0.025986    0.209716
  C     -0.944551   -1.185854    0.454618
  C      0.186338   -1.159513   -0.568550
  C      1.060139    0.100705   -0.414185
  C      0.247552    1.257037    0.188364
  C     -1.188351    1.215174   -0.322789
  O      2.235248   -0.156613    0.335556
  H     -2.427223    0.214833    1.144071
  H     -2.679848   -0.329116   -0.509424
  H     -0.526620   -1.115296    1.460324
  H     -1.477110   -2.135727    0.392042
  H      0.826939   -2.036648   -0.459832
  H     -0.239673   -1.184264   -1.571937
  H      1.442559    0.394250   -1.398273
  H      0.248004    1.171250    1.277184
  H      0.721996    2.205657   -0.065817
  H     -1.718238    2.117588   -0.016189
  H     -1.168233    1.200661   -1.413909
  H      1.981176   -0.419118    1.231427

 Total Charge           Charge          ....    0
 Multiplicity           Mult            ....    1
 Number of Electrons    NEL             ....   56
 Basis Dimension        Dim             ....  122

ORBITAL ENERGIES
----------------

  NO   OCC          E(Eh)            E(eV)
   0   2.0000     -18.736239      -509.8390
   1   2.0000      -9.931463      -270.2489
   2   2.0000      -9.885899      -269.0090
   3   2.0000      -9.884729      -268.9772
   4   2.0000      -9.883941      -268.9557
   5   2.0000      -9.881466      -268.8884
   6   2.0000      -9.879098      -268.8239
   7   2.0000      -0.913884       -24.8680
   8   2.0000      -0.748789       -20.3756
   9   2.0000      -0.666218       -18.1287
  10   2.0000      -0.652142       -17.7457
  11   2.0000      -0.557094       -15.1593
  12   2.0000      -0.547303       -14.8929
  13   2.0000      -0.481504       -13.1024
  14   2.0000      -0.446811       -12.1584
  15   2.0000      -0.442534       -12.0420
  16   2.0000      -0.403889       -10.9904
  17   2.0000      -0.390087       -10.6148
  18   2.0000      -0.353121        -9.6089
  19   2.0000      -0.346628        -9.4322
  20   2.0000      -0.332852        -9.0574
  21   2.0000      -0.328074        -8.9274
  22   2.0000      -0.324012        -8.8168
  23   2.0000      -0.296020        -8.0551
  24   2.0000      -0.274476        -7.4689
  25   2.0000      -0.269605        -7.3363
  26   2.0000      -0.252663        -6.8753
  27   2.0000      -0.206464        -5.6182
  28   0.0000       0.020474         0.5571
  29   0.0000       0.035184         0.9574
  30   0.0000       0.054536         1.4840
  31   0.0000       0.077565         2.1106
  32   0.0000       0.091494         2.4897

MULLIKEN ATOMIC CHARGES
-----------------------
   0 C :   -0.158405
   1 C :   -0.167967
   2 C :   -0.138423
   3 C :    0.021078
   4 C :   -0.121560
   5 C :   -0.164998
   6 O :   -0.427630
   7 H :    0.082292
   8 H :    0.083599
   9 H :    0.065330
  10 H :    0.089583
  11 H :    0.088363
  12 H :    0.077518
  13 H :    0.066383
  14 H :    0.056774
  15 H :    0.091816
  16 H :    0.087787
  17 H :    0.080127
  18 H :    0.288331
Sum of atomic charges:   -0.0000000

LOEWDIN ATOMIC CHARGES
----------------------
   0 C :   -0.230061
   1 C :   -0.231989
   2 C :   -0.245201
   3 C :   -0.052895
   4 C :   -0.238274
   5 C :   -0.230919
   6 O :   -0.328072
   7 H :    0.116695
   8 H :    0.117143
   9 H :    0.106297
  10 H :    0.120166
  11 H :    0.121389
  12 H :    0.119398
  13 H :    0.112153
  14 H :    0.111134
  15 H :    0.121598
  16 H :    0.119585
  17 H :    0.115897
  18 H :    0.275957

  Mayer bond orders larger than 0.100000
B(  0-C ,  1-C ) :   1.1412 B(  0-C ,  5-C ) :   1.1336 B(  0-C ,  7-H ) :   0.9220
B(  0-C ,  8-H ) :   0.9230 B(  1-C ,  2-C ) :   1.1731 B(  1-C ,  9-H ) :   0.9081
B(  1-C , 10-H ) :   0.9214 B(  2-C ,  3-C ) :   1.0736 B(  2-C , 11-H ) :   0.9128
B(  2-C , 12-H ) :   0.8991 B(  3-C ,  4-C ) :   1.0908 B(  3-C ,  6-O ) :   1.0432
B(  3-C , 13-H ) :   0.8995 B(  4-C ,  5-C ) :   1.1586 B(  4-C , 14-H ) :   0.8925
B(  4-C , 15-H ) :   0.9154 B(  5-C , 16-H ) :   0.9196 B(  5-C , 17-H ) :   0.9116
B(  6-O , 18-H ) :   0.8541

Dispersion correction           -0.016415496
FINAL SINGLE POINT ENERGY      -310.336022380447

DIPOLE MOMENT
-------------

Method             : SCF
Type of density    : Electron Density
Multiplicity       :   1
Irrep              :   0
Energy             :  -310.4090718796152828 Eh
Relativity type    :
Basis              : AO
                                X                 Y                 Z
Electronic contribution:      4.084820835      -0.126156398       0.158498777
Nuclear contribution   :     -4.672934183       0.076545346       0.070336580
                        -----------------------------------------
Total Dipole Moment    :     -0.588113348      -0.049611051       0.228835357
                        -----------------------------------------
Magnitude (a.u.)       :      0.633011996
Magnitude (Debye)      :      1.608988626

Rotational constants in cm-1:             0.140318             0.076472             0.058452
Rotational constants in MHz :          4206.633192          2292.559963          1752.357689

                             ****ORCA TERMINATED NORMALLY****
TOTAL RUN TIME: 0 days 0 hours 0 minutes 28 seconds 617 msec
