                         Program Version 6.0.0  -   RELEASE  -
|  1> ! pbe def2-sv(p) def2/J RI DEFGRID1 loosescf d4 GCP(DFT/SV(P)) printgap
|  2> %output
|  3>     printlevel normal
|  4> end
|  5> * xyz 0 1
|  6> C -2.2371149805 -0.9706909982 -0.410941798
|  7> C -1.1706794119 -0.2120084588 0.3876979604
|  8> H -1.6440498304 0.2179536196 1.2787316
|  9> C -0.5720763101 0.9333059985 -0.4301862805
| 10> H -0.3977447139 0.6057418856 -1.468179749
| 11> C 0.7796783877 1.3102715285 0.1848444008
| 12> H 0.6569919773 1.465432087 1.2669074046
| 13> C 1.7522671066 0.1460283685 -0.0311027564
| 14> H 2.0923549134 0.1781288958 -1.0758042041
| 15> C 1.0254277097 -1.2070113039 0.165173844
| 16> H 1.6441225823 -1.8486226349 0.8102720522
| 17> O -0.1751436965 -1.1072162569 0.8874613204
| 18> O 0.849438828 -1.7718049056 -1.0981700054
| 19> O 2.8239729643 0.3188010356 0.8603659386
| 20> O 1.2246534192 2.4888615863 -0.4369200923
| 21> O -1.4776079894 2.0025478168 -0.4084596448
| 22> O -2.9599546098 -1.8724418211 0.3896181105
| 23> H -1.7588003772 -1.4939218865 -1.2495870087
| 24> H -2.9570309279 -0.2495479424 -0.801814168
| 25> H 0.5883134833 -2.7024255417 -1.0222120367
| 26> H 3.5551454996 -0.2719619259 0.6297446074
| 27> H 2.0662831006 2.7570195739 -0.0415863389
| 28> H -1.0099865895 2.7937417585 -0.7218493272
| 29> H -2.3305430457 -2.3828450591 0.9204704514
| 30> *
| 31>
| 32>                          ****END OF INPUT****

CARTESIAN COORDINATES (ANGSTROEM)
---------------------------------
  C     -2.237115   -0.970691   -0.410942
  C     -1.170679   -0.212008    0.387698
  H     -1.644050    0.217954    1.278732
  C     -0.572076    0.933306   -0.430186
  H     -0.397745    0.605742   -1.468180
  C      0.779678    1.310272    0.184844
  H      0.656992    1.465432    1.266907
  C      1.752267    0.146028   -0.031103
  H      2.092355    0.178129   -1.075804
  C      1.025428   -1.207011    0.165174
  H      1.644123   -1.848623    0.810272
  O     -0.175144   -1.107216    0.887461
  O      0.849439   -1.771805   -1.098170
  O      2.823973    0.318801    0.860366
  O      1.224653    2.488862   -0.436920
  O     -1.477608    2.002548   -0.408460
  O     -2.959955   -1.872442    0.389618
  H     -1.758800   -1.493922   -1.249587
  H     -2.957031   -0.249548   -0.801814
  H      0.588313   -2.702426   -1.022212
  H      3.555145   -0.271962    0.629745
  H      2.066283    2.757020   -0.041586
  H     -1.009987    2.793742   -0.721849
  H     -2.330543   -2.382845    0.920470

 Total Charge           Charge          ....    0
 Multiplicity           Mult            ....    1
 Number of Electrons    NEL             ....   96
 Basis Dimension        Dim             ....  192

ORBITAL ENERGIES
----------------

  NO   OCC          E(Eh)            E(eV)
   0   2.0000     -18.773599      -510.8556
   1   2.0000     -18.773096      -510.8419
   2   2.0000     -18.767711      -510.6954
   3   2.0000     -18.761973      -510.5392
   4   2.0000     -18.745792      -510.0989
   5   2.0000     -18.734973      -509.8045
   6   2.0000      -9.993131      -271.9269
   7   2.0000      -9.946974      -270.6709
   8   2.0000      -9.944069      -270.5919
   9   2.0000      -9.940981      -270.5078
  10   2.0000      -9.938829      -270.4493
  11   2.0000      -9.919535      -269.9243
  12   2.0000      -0.986398       -26.8413
  13   2.0000      -0.951561       -25.8933
  14   2.0000      -0.937888       -25.5212
  15   2.0000      -0.924414       -25.1546
  16   2.0000      -0.915970       -24.9248
  17   2.0000      -0.907367       -24.6907
  18   2.0000      -0.708601       -19.2820
  19   2.0000      -0.694157       -18.8890
  20   2.0000      -0.616939       -16.7878
  21   2.0000      -0.586451       -15.9581
  22   2.0000      -0.565644       -15.3920
  23   2.0000      -0.531712       -14.4686
  24   2.0000      -0.506723       -13.7886
  25   2.0000      -0.483429       -13.1548
  26   2.0000      -0.473309       -12.8794
  27   2.0000      -0.464003       -12.6262
  28   2.0000      -0.445882       -12.1331
  29   2.0000      -0.427198       -11.6247
  30   2.0000      -0.416792       -11.3415
  31   2.0000      -0.394693       -10.7401
  32   2.0000      -0.381038       -10.3686
  33   2.0000      -0.379850       -10.3362
  34   2.0000      -0.371778       -10.1166
  35   2.0000      -0.350063        -9.5257
  36   2.0000      -0.326469        -8.8837
  37   2.0000      -0.314506        -8.5581
  38   2.0000      -0.310001        -8.4356
  39   2.0000      -0.288319        -7.8456
  40   2.0000      -0.287247        -7.8164
  41   2.0000      -0.272048        -7.4028
  42   2.0000      -0.253283        -6.8922
  43   2.0000      -0.244745        -6.6599
  44   2.0000      -0.235351        -6.4042
  45   2.0000      -0.221888        -6.0379
  46   2.0000      -0.216161        -5.8821
  47   2.0000      -0.201788        -5.4909
  48   0.0000       0.009542         0.2597
  49   0.0000       0.012866         0.3501
  50   0.0000       0.033683         0.9166
  51   0.0000       0.049553         1.3484
  52   0.0000       0.058055         1.5798

MULLIKEN ATOMIC CHARGES
-----------------------
   0 C :    0.078563
   1 C :    0.040583
   2 H :    0.078310
   3 C :    0.016788
   4 H :    0.066594
   5 C :    0.052198
   6 H :    0.066082
   7 C :    0.045948
   8 H :    0.071126
   9 C :    0.176379
  10 H :    0.047658
  11 O :   -0.329920
  12 O :   -0.394655
  13 O :   -0.415308
  14 O :   -0.425604
  15 O :   -0.416669
  16 O :   -0.436608
  17 H :    0.058291
  18 H :    0.095344
  19 H :    0.306680
  20 H :    0.306667
  21 H :    0.311179
  22 H :    0.308919
  23 H :    0.291457
Sum of atomic charges:    0.0000000

LOEWDIN ATOMIC CHARGES
----------------------
   0 C :   -0.133712
   1 C :   -0.065096
   2 H :    0.121518
   3 C :   -0.068138
   4 H :    0.105892
   5 C :   -0.071627
   6 H :    0.111721
   7 C :   -0.088476
   8 H :    0.111591
   9 C :   -0.009309
  10 H :    0.094685
  11 O :   -0.151284
  12 O :   -0.310055
  13 O :   -0.317827
  14 O :   -0.320971
  15 O :   -0.315524
  16 O :   -0.340599
  17 H :    0.092633
  18 H :    0.121865
  19 H :    0.287256
  20 H :    0.289338
  21 H :    0.293261
  22 H :    0.286739
  23 H :    0.276117

  Mayer bond orders larger than 0.100000
B(  0-C ,  1-C ) :   1.0878 B(  0-C , 16-O ) :   1.0703 B(  0-C , 17-H ) :   0.8975
B(  0-C , 18-H ) :   0.9118 B(  1-C ,  2-H ) :   0.8738 B(  1-C ,  3-C ) :   0.9820
B(  1-C , 11-O ) :   0.9457 B(  3-C ,  4-H ) :   0.8793 B(  3-C ,  5-C ) :   1.0248
B(  3-C , 15-O ) :   1.0810 B(  5-C ,  6-H ) :   0.8665 B(  5-C ,  7-C ) :   1.0323
B(  5-C , 14-O ) :   1.0761 B(  7-C ,  8-H ) :   0.8766 B(  7-C ,  9-C ) :   0.9758
B(  7-C , 13-O ) :   1.0860 B(  9-C , 10-H ) :   0.8949 B(  9-C , 11-O ) :   1.0906
B(  9-C , 12-O ) :   1.0997 B( 12-O , 19-H ) :   0.8343 B( 13-O , 20-H ) :   0.8464
B( 14-O , 21-H ) :   0.8403 B( 15-O , 22-H ) :   0.8294 B( 16-O , 23-H ) :   0.8459

Dispersion correction           -0.024310237
FINAL SINGLE POINT ENERGY      -685.695078706138

DIPOLE MOMENT
-------------

Method             : SCF
Type of density    : Electron Density
Multiplicity       :   1
Irrep              :   0
Energy             :  -685.8250811273405816 Eh
Relativity type    :
Basis              : AO
                                X                 Y                 Z
Electronic contribution:      1.238587872       0.406563020       1.266790721
Nuclear contribution   :      0.478055962      -0.872854244      -1.380840943
                        -----------------------------------------
Total Dipole Moment    :      1.716643834      -0.466291224      -0.114050222
                        -----------------------------------------
Magnitude (a.u.)       :      1.782498531
Magnitude (Debye)      :      4.530751200

Rotational constants in cm-1:             0.042725             0.025739             0.018437
Rotational constants in MHz :          1280.854394           771.622950           552.741711

                             ****ORCA TERMINATED NORMALLY****
TOTAL RUN TIME: 0 days 0 hours 0 minutes 12 seconds 77 msec
