                         Program Version 6.0.0  -   RELEASE  -
|  1> ! r2scan-3c def2/J RI DEFGRID2 scfconv6 printgap
|  2> %output
|  3>     printlevel normal
|  4> end
|  5> * xyz 0 1
|  6> C -2.2250787395 0.9536812126 0.0001610274
|  7> O -0.8140685602 0.7282705404 0.0006933306
|  8> C -0.362135513 -0.5238151601 -0.0003938178
|  9> O -1.0901453576 -1.501518525 -0.000814069
| 10> C 1.109416825 -0.6055414352 0.0003020979
| 11> C 1.9195662896 0.4342858616 -0.7416744494
| 12> C 1.9192837446 0.4349271242 0.7417414861
| 13> H -2.7525260355 0.0002321459 0.0484116706
| 14> H -2.4799660116 1.4822156451 -0.9169696998
| 15> H -2.4612895819 1.5658954367 0.8684924496
| 16> H 1.4593890715 -1.6287154523 0.0005800511
| 17> H 2.7948142403 0.0850070896 -1.265457774
| 18> H 1.3686814427 1.208899355 -1.2507256786
| 19> H 2.7943432484 0.0861601502 1.2661386871
| 20> H 1.3682541741 1.2100756712 1.2498221258
| 21> *
| 22>
| 23>                          ****END OF INPUT****

CARTESIAN COORDINATES (ANGSTROEM)
---------------------------------
  C     -2.225079    0.953681    0.000161
  O     -0.814069    0.728271    0.000693
  C     -0.362136   -0.523815   -0.000394
  O     -1.090145   -1.501519   -0.000814
  C      1.109417   -0.605541    0.000302
  C      1.919566    0.434286   -0.741674
  C      1.919284    0.434927    0.741741
  H     -2.752526    0.000232    0.048412
  H     -2.479966    1.482216   -0.916970
  H     -2.461290    1.565895    0.868492
  H      1.459389   -1.628715    0.000580
  H      2.794814    0.085007   -1.265458
  H      1.368681    1.208899   -1.250726
  H      2.794343    0.086160    1.266139
  H      1.368254    1.210076    1.249822

 Total Charge           Charge          ....    0
 Multiplicity           Mult            ....    1
 Number of Electrons    NEL             ....   54
 Basis Dimension        Dim             ....  183

ORBITAL ENERGIES
----------------

  NO   OCC          E(Eh)            E(eV)
   0   2.0000     -18.998722      -516.9815
   1   2.0000     -18.925046      -514.9767
   2   2.0000     -10.153479      -276.2902
   3   2.0000     -10.085471      -274.4396
   4   2.0000     -10.057602      -273.6813
   5   2.0000     -10.049368      -273.4572
   6   2.0000     -10.049161      -273.4516
   7   2.0000      -1.071419       -29.1548
   8   2.0000      -0.972584       -26.4654
   9   2.0000      -0.846985       -23.0476
  10   2.0000      -0.708748       -19.2860
  11   2.0000      -0.617828       -16.8120
  12   2.0000      -0.583160       -15.8686
  13   2.0000      -0.534236       -14.5373
  14   2.0000      -0.490893       -13.3579
  15   2.0000      -0.469026       -12.7628
  16   2.0000      -0.450835       -12.2678
  17   2.0000      -0.428973       -11.6729
  18   2.0000      -0.406430       -11.0595
  19   2.0000      -0.376161       -10.2359
  20   2.0000      -0.359345        -9.7783
  21   2.0000      -0.344453        -9.3730
  22   2.0000      -0.320676        -8.7260
  23   2.0000      -0.299038        -8.1372
  24   2.0000      -0.279438        -7.6039
  25   2.0000      -0.268895        -7.3170
  26   2.0000      -0.233836        -6.3630
  27   0.0000      -0.017357        -0.4723
  28   0.0000       0.061717         1.6794
  29   0.0000       0.088612         2.4113
  30   0.0000       0.098432         2.6785
  31   0.0000       0.102140         2.7794

MULLIKEN ATOMIC CHARGES
-----------------------
   0 C :   -0.303023
   1 O :   -0.212859
   2 C :    0.421734
   3 O :   -0.445044
   4 C :   -0.141783
   5 C :   -0.333400
   6 C :   -0.333644
   7 H :    0.192647
   8 H :    0.146940
   9 H :    0.146588
  10 H :    0.184893
  11 H :    0.165898
  12 H :    0.172561
  13 H :    0.165927
  14 H :    0.172565
Sum of atomic charges:   -0.0000000

LOEWDIN ATOMIC CHARGES
----------------------
   0 C :   -0.043594
   1 O :   -0.618911
   2 C :    0.372583
   3 O :   -0.444937
   4 C :   -0.143695
   5 C :   -0.262892
   6 C :   -0.262900
   7 H :    0.195248
   8 H :    0.172167
   9 H :    0.172504
  10 H :    0.184908
  11 H :    0.164118
  12 H :    0.175623
  13 H :    0.164123
  14 H :    0.175656

  Mayer bond orders larger than 0.100000
B(  0-C ,  1-O ) :   0.8375 B(  0-C ,  7-H ) :   0.9680 B(  0-C ,  8-H ) :   0.9646
B(  0-C ,  9-H ) :   0.9660 B(  1-O ,  2-C ) :   1.1044 B(  2-C ,  3-O ) :   1.8577
B(  2-C ,  4-C ) :   1.1202 B(  4-C ,  5-C ) :   0.8654 B(  4-C ,  6-C ) :   0.8649
B(  4-C , 10-H ) :   0.9163 B(  5-C ,  6-C ) :   0.9972 B(  5-C , 11-H ) :   0.9415
B(  5-C , 12-H ) :   0.9528 B(  6-C , 13-H ) :   0.9416 B(  6-C , 14-H ) :   0.9527

Dispersion correction           -0.003580732
FINAL SINGLE POINT ENERGY      -345.697023131783

DIPOLE MOMENT
-------------

Method             : SCF
Type of density    : Electron Density
Multiplicity       :   1
Irrep              :   0
Energy             :  -345.7023662651727136 Eh
Relativity type    :
Basis              : AO
                                X                 Y                 Z
Electronic contribution:     -1.565450659      -2.871070785       0.000912372
Nuclear contribution   :      1.934107849       3.750380662       0.000271996
                        -----------------------------------------
Total Dipole Moment    :      0.368657191       0.879309878       0.001184368
                        -----------------------------------------
Magnitude (a.u.)       :      0.953464938
Magnitude (Debye)      :      2.423515272

Rotational constants in cm-1:             0.169858             0.065655             0.053756
Rotational constants in MHz :          5092.225278          1968.281161          1611.576734

                             ****ORCA TERMINATED NORMALLY****
TOTAL RUN TIME: 0 days 0 hours 0 minutes 17 seconds 899 msec
