                         Program Version 6.0.0  -   RELEASE  -
|  1> ! r2scan-3c def2/J RI DEFGRID2 scfconv6 printgap
|  2> %output
|  3>     printlevel normal
|  4> end
|  5> %cpcm
|  6>     smd true
|  7>     smdsolvent "water"
|  8> end
|  9> * xyz 0 1
| 10> C -2.2250787395 0.9536812126 0.0001610274
| 11> O -0.8140685602 0.7282705404 0.0006933306
| 12> C -0.362135513 -0.5238151601 -0.0003938178
| 13> O -1.0901453576 -1.501518525 -0.000814069
| 14> C 1.109416825 -0.6055414352 0.0003020979
| 15> C 1.9195662896 0.4342858616 -0.7416744494
| 16> C 1.9192837446 0.4349271242 0.7417414861
| 17> H -2.7525260355 0.0002321459 0.0484116706
| 18> H -2.4799660116 1.4822156451 -0.9169696998
| 19> H -2.4612895819 1.5658954367 0.8684924496
| 20> H 1.4593890715 -1.6287154523 0.0005800511
| 21> H 2.7948142403 0.0850070896 -1.265457774
| 22> H 1.3686814427 1.208899355 -1.2507256786
| 23> H 2.7943432484 0.0861601502 1.2661386871
| 24> H 1.3682541741 1.2100756712 1.2498221258
| 25> *
| 26>
| 27>                          ****END OF INPUT****

CARTESIAN COORDINATES (ANGSTROEM)
---------------------------------
  C     -2.225079    0.953681    0.000161
  O     -0.814069    0.728271    0.000693
  C     -0.362136   -0.523815   -0.000394
  O     -1.090145   -1.501519   -0.000814
  C      1.109417   -0.605541    0.000302
  C      1.919566    0.434286   -0.741674
  C      1.919284    0.434927    0.741741
  H     -2.752526    0.000232    0.048412
  H     -2.479966    1.482216   -0.916970
  H     -2.461290    1.565895    0.868492
  H      1.459389   -1.628715    0.000580
  H      2.794814    0.085007   -1.265458
  H      1.368681    1.208899   -1.250726
  H      2.794343    0.086160    1.266139
  H      1.368254    1.210076    1.249822

 Total Charge           Charge          ....    0
 Multiplicity           Mult            ....    1
 Number of Electrons    NEL             ....   54
 Basis Dimension        Dim             ....  183

ORBITAL ENERGIES
----------------

  NO   OCC          E(Eh)            E(eV)
   0   2.0000     -19.002779      -517.0919
   1   2.0000     -18.941455      -515.4232
   2   2.0000     -10.164380      -276.5868
   3   2.0000     -10.075070      -274.1566
   4   2.0000     -10.053950      -273.5819
   5   2.0000     -10.041071      -273.2314
   6   2.0000     -10.040863      -273.2258
   7   2.0000      -1.077654       -29.3244
   8   2.0000      -0.986758       -26.8510
   9   2.0000      -0.841319       -22.8935
  10   2.0000      -0.704978       -19.1834
  11   2.0000      -0.615067       -16.7368
  12   2.0000      -0.574166       -15.6239
  13   2.0000      -0.531093       -14.4518
  14   2.0000      -0.488056       -13.2807
  15   2.0000      -0.466339       -12.6897
  16   2.0000      -0.449536       -12.2325
  17   2.0000      -0.437220       -11.8974
  18   2.0000      -0.406006       -11.0480
  19   2.0000      -0.376726       -10.2512
  20   2.0000      -0.355617        -9.6768
  21   2.0000      -0.334403        -9.0996
  22   2.0000      -0.321354        -8.7445
  23   2.0000      -0.296428        -8.0662
  24   2.0000      -0.277638        -7.5549
  25   2.0000      -0.274716        -7.4754
  26   2.0000      -0.249198        -6.7810
  27   0.0000      -0.025599        -0.6966
  28   0.0000       0.068095         1.8530
  29   0.0000       0.097271         2.6469
  30   0.0000       0.103678         2.8212
  31   0.0000       0.109547         2.9809

MULLIKEN ATOMIC CHARGES
-----------------------
   0 C :   -0.316558
   1 O :   -0.217879
   2 C :    0.455146
   3 O :   -0.530860
   4 C :   -0.171962
   5 C :   -0.363277
   6 C :   -0.363576
   7 H :    0.185669
   8 H :    0.174561
   9 H :    0.174131
  10 H :    0.207184
  11 H :    0.193514
  12 H :    0.190183
  13 H :    0.193544
  14 H :    0.190178
Sum of atomic charges:    0.0000000

LOEWDIN ATOMIC CHARGES
----------------------
   0 C :   -0.038017
   1 O :   -0.616136
   2 C :    0.377297
   3 O :   -0.511251
   4 C :   -0.148488
   5 C :   -0.261265
   6 C :   -0.261308
   7 H :    0.192835
   8 H :    0.183526
   9 H :    0.184065
  10 H :    0.191199
  11 H :    0.173867
  12 H :    0.179891
  13 H :    0.173870
  14 H :    0.179915

  Mayer bond orders larger than 0.100000
B(  0-C ,  1-O ) :   0.8239 B(  0-C ,  7-H ) :   0.9651 B(  0-C ,  8-H ) :   0.9556
B(  0-C ,  9-H ) :   0.9568 B(  1-O ,  2-C ) :   1.1288 B(  2-C ,  3-O ) :   1.7867
B(  2-C ,  4-C ) :   1.1137 B(  4-C ,  5-C ) :   0.8597 B(  4-C ,  6-C ) :   0.8594
B(  4-C , 10-H ) :   0.9097 B(  5-C ,  6-C ) :   0.9853 B(  5-C , 11-H ) :   0.9350
B(  5-C , 12-H ) :   0.9520 B(  6-C , 13-H ) :   0.9350 B(  6-C , 14-H ) :   0.9520

Dispersion correction           -0.003580732
FINAL SINGLE POINT ENERGY      -345.703013484871

DIPOLE MOMENT
-------------

Method             : SCF
Type of density    : Electron Density
Multiplicity       :   1
Irrep              :   0
Energy             :  -345.7083566182599839 Eh
Relativity type    :
Basis              : AO
                                X                 Y                 Z
Electronic contribution:     -1.365027494      -2.500816379       0.000667891
Nuclear contribution   :      1.934107849       3.750380662       0.000271996
                        -----------------------------------------
Total Dipole Moment    :      0.569080355       1.249564283       0.000939887
                        -----------------------------------------
Magnitude (a.u.)       :      1.373049246
Magnitude (Debye)      :      3.490013828

Rotational constants in cm-1:             0.169858             0.065655             0.053756
Rotational constants in MHz :          5092.225278          1968.281161          1611.576734

                             ****ORCA TERMINATED NORMALLY****
TOTAL RUN TIME: 0 days 0 hours 0 minutes 21 seconds 213 msec
