                         Program Version 6.0.0  -   RELEASE  -
|  1> ! pbe def2-sv(p) def2/J RI DEFGRID1 loosescf d4 GCP(DFT/SV(P)) printgap
|  2> %output
|  3>     printlevel normal
|  4> end
|  5> * xyz 0 1
|  6> C -4.1868385456 -0.3568041216 -0.1841538834
|  7> C -2.7144027271 -0.1270254939 -0.0376160366
|  8> C -1.9925026091 -0.7244212655 0.9876830192
|  9> C -0.6283363099 -0.5260900925 1.1057190878
| 10> C 0.0419013155 0.2760183044 0.1920477102
| 11> C -0.6738346572 0.8885300664 -0.8292285821
| 12> C -2.0362706811 0.6846276754 -0.9408881591
| 13> C 1.5100465283 0.5269266492 0.3421821053
| 14> O 1.9318435112 1.4805465439 1.0049648358
| 15> N 2.3139989449 -0.3422650377 -0.2822130711
| 16> C 3.7521176639 -0.2061032316 -0.2005668036
| 17> C 1.795747422 -1.4536643842 -1.0557708645
| 18> H -4.70004709 0.5775034948 -0.3993997583
| 19> H -4.3744100167 -1.0395959016 -1.01197696
| 20> H -4.6039596606 -0.7905893541 0.7202583601
| 21> H -2.5014770733 -1.3507795879 1.7053073103
| 22> H -0.0796052638 -0.9880726412 1.9137907024
| 23> H -0.1592730619 1.5295468636 -1.5305546234
| 24> H -2.58309314 1.1645579809 -1.739006144
| 25> H 4.1733464139 -0.0628503618 -1.1959752238
| 26> H 4.1880542422 -1.0943607985 0.2573800045
| 27> H 3.9737450124 0.6641800533 0.414641455
| 28> H 1.146455571 -1.0987825745 -1.8566398288
| 29> H 1.2243135508 -2.1345038338 -0.423731992
| 30> H 2.6341797134 -1.990584007 -1.4894987714
| 31> *
| 32>
| 33>                          ****END OF INPUT****

CARTESIAN COORDINATES (ANGSTROEM)
---------------------------------
  C     -4.186839   -0.356804   -0.184154
  C     -2.714403   -0.127025   -0.037616
  C     -1.992503   -0.724421    0.987683
  C     -0.628336   -0.526090    1.105719
  C      0.041901    0.276018    0.192048
  C     -0.673835    0.888530   -0.829229
  C     -2.036271    0.684628   -0.940888
  C      1.510047    0.526927    0.342182
  O      1.931844    1.480547    1.004965
  N      2.313999   -0.342265   -0.282213
  C      3.752118   -0.206103   -0.200567
  C      1.795747   -1.453664   -1.055771
  H     -4.700047    0.577503   -0.399400
  H     -4.374410   -1.039596   -1.011977
  H     -4.603960   -0.790589    0.720258
  H     -2.501477   -1.350780    1.705307
  H     -0.079605   -0.988073    1.913791
  H     -0.159273    1.529547   -1.530555
  H     -2.583093    1.164558   -1.739006
  H      4.173346   -0.062850   -1.195975
  H      4.188054   -1.094361    0.257380
  H      3.973745    0.664180    0.414641
  H      1.146456   -1.098783   -1.856640
  H      1.224314   -2.134504   -0.423732
  H      2.634180   -1.990584   -1.489499

 Total Charge           Charge          ....    0
 Multiplicity           Mult            ....    1
 Number of Electrons    NEL             ....   88
 Basis Dimension        Dim             ....  194

ORBITAL ENERGIES
----------------

  NO   OCC          E(Eh)            E(eV)
   0   2.0000     -18.703431      -508.9462
   1   2.0000     -14.024426      -381.6240
   2   2.0000      -9.972469      -271.3647
   3   2.0000      -9.923561      -270.0338
   4   2.0000      -9.914015      -269.7741
   5   2.0000      -9.903180      -269.4792
   6   2.0000      -9.900975      -269.4192
   7   2.0000      -9.895977      -269.2832
   8   2.0000      -9.895675      -269.2750
   9   2.0000      -9.892438      -269.1869
  10   2.0000      -9.892314      -269.1835
  11   2.0000      -9.886194      -269.0170
  12   2.0000      -0.924178       -25.1482
  13   2.0000      -0.845499       -23.0072
  14   2.0000      -0.782051       -21.2807
  15   2.0000      -0.707580       -19.2542
  16   2.0000      -0.673002       -18.3133
  17   2.0000      -0.659183       -17.9373
  18   2.0000      -0.641499       -17.4561
  19   2.0000      -0.610705       -16.6181
  20   2.0000      -0.549820       -14.9614
  21   2.0000      -0.532998       -14.5036
  22   2.0000      -0.495780       -13.4909
  23   2.0000      -0.473478       -12.8840
  24   2.0000      -0.436573       -11.8798
  25   2.0000      -0.428165       -11.6510
  26   2.0000      -0.415594       -11.3089
  27   2.0000      -0.410209       -11.1623
  28   2.0000      -0.390940       -10.6380
  29   2.0000      -0.381543       -10.3823
  30   2.0000      -0.377162       -10.2631
  31   2.0000      -0.367895       -10.0109
  32   2.0000      -0.362206        -9.8561
  33   2.0000      -0.348278        -9.4771
  34   2.0000      -0.346788        -9.4366
  35   2.0000      -0.335253        -9.1227
  36   2.0000      -0.318504        -8.6669
  37   2.0000      -0.317783        -8.6473
  38   2.0000      -0.307563        -8.3692
  39   2.0000      -0.296464        -8.0672
  40   2.0000      -0.232303        -6.3213
  41   2.0000      -0.225486        -6.1358
  42   2.0000      -0.199772        -5.4361
  43   2.0000      -0.186043        -5.0625
  44   0.0000      -0.039568        -1.0767
  45   0.0000      -0.035977        -0.9790
  46   0.0000      -0.001457        -0.0396
  47   0.0000       0.034741         0.9453
  48   0.0000       0.047649         1.2966

MULLIKEN ATOMIC CHARGES
-----------------------
   0 C :   -0.222121
   1 C :    0.058989
   2 C :   -0.114876
   3 C :   -0.074594
   4 C :    0.001867
   5 C :   -0.073964
   6 C :   -0.109950
   7 C :    0.125431
   8 O :   -0.239266
   9 N :   -0.241253
  10 C :   -0.184975
  11 C :   -0.145448
  12 H :    0.113094
  13 H :    0.118092
  14 H :    0.103757
  15 H :    0.036608
  16 H :    0.046796
  17 H :    0.047619
  18 H :    0.035909
  19 H :    0.111010
  20 H :    0.110624
  21 H :    0.141899
  22 H :    0.120431
  23 H :    0.117300
  24 H :    0.117019
Sum of atomic charges:    0.0000000

LOEWDIN ATOMIC CHARGES
----------------------
   0 C :   -0.322351
   1 C :   -0.047743
   2 C :   -0.122044
   3 C :   -0.110596
   4 C :   -0.059308
   5 C :   -0.109735
   6 C :   -0.119633
   7 C :    0.027235
   8 O :   -0.205761
   9 N :   -0.050167
  10 C :   -0.256060
  11 C :   -0.249297
  12 H :    0.130596
  13 H :    0.133803
  14 H :    0.125174
  15 H :    0.121924
  16 H :    0.125684
  17 H :    0.125922
  18 H :    0.121895
  19 H :    0.116162
  20 H :    0.116075
  21 H :    0.136656
  22 H :    0.124619
  23 H :    0.123066
  24 H :    0.123882

  Mayer bond orders larger than 0.100000
B(  0-C ,  1-C ) :   1.0987 B(  0-C , 12-H ) :   0.9390 B(  0-C , 13-H ) :   0.9332
B(  0-C , 14-H ) :   0.9444 B(  1-C ,  2-C ) :   1.3917 B(  1-C ,  6-C ) :   1.3724
B(  2-C ,  3-C ) :   1.3499 B(  2-C , 15-H ) :   0.9615 B(  3-C ,  4-C ) :   1.4004
B(  3-C , 16-H ) :   0.9623 B(  4-C ,  5-C ) :   1.3919 B(  4-C ,  7-C ) :   0.8875
B(  5-C ,  6-C ) :   1.3622 B(  5-C , 17-H ) :   0.9636 B(  6-C , 18-H ) :   0.9674
B(  7-C ,  8-O ) :   2.0339 B(  7-C ,  9-N ) :   1.2146 B(  8-O ,  9-N ) :   0.1072
B(  9-N , 10-C ) :   1.0008 B(  9-N , 11-C ) :   1.0056 B( 10-C , 19-H ) :   0.9533
B( 10-C , 20-H ) :   0.9534 B( 10-C , 21-H ) :   0.9282 B( 11-C , 22-H ) :   0.9456
B( 11-C , 23-H ) :   0.9465 B( 11-C , 24-H ) :   0.9474

Dispersion correction           -0.027535258
FINAL SINGLE POINT ENERGY      -517.736457224528

DIPOLE MOMENT
-------------

Method             : SCF
Type of density    : Electron Density
Multiplicity       :   1
Irrep              :   0
Energy             :  -517.8109484758923600 Eh
Relativity type    :
Basis              : AO
                                X                 Y                 Z
Electronic contribution:      1.290868440       4.936135631       3.437567221
Nuclear contribution   :     -1.517702861      -6.185296016      -4.335448298
                        -----------------------------------------
Total Dipole Moment    :     -0.226834421      -1.249160385      -0.897881077
                        -----------------------------------------
Magnitude (a.u.)       :      1.555006736
Magnitude (Debye)      :      3.952513011

Rotational constants in cm-1:             0.079132             0.016760             0.016283
Rotational constants in MHz :          2372.325379           502.463356           488.156271

                             ****ORCA TERMINATED NORMALLY****
TOTAL RUN TIME: 0 days 0 hours 0 minutes 13 seconds 130 msec
