                         Program Version 6.0.0  -   RELEASE  -
|  1> ! wb97x-v def2-tzvp def2/J RIJCOSX DEFGRID2 scfconv7 GCP(DFT/TZ) printgap
|  2> %output
|  3>     printlevel normal
|  4> end
|  5> * xyz 0 1
|  6> C -2.3297381168021003 1.2236791901372932 0.0726452122389063
|  7> N -1.623615131253114 -0.00016482836623986287 -0.3154632876471039
|  8> C -2.329501381050727 -1.223671770139204 0.07432862472944869
|  9> C -0.23708256590270557 -2.7145998072906886e-05 -0.157959369846904
| 10> C 0.49440291300738004 -1.2061934409182657 -0.09214282671197892
| 11> C 1.8809683762893894 -1.196025254805167 0.008814871275722192
| 12> C 2.5934532378172386 3.6589945695569026e-05 0.06060761641188726
| 13> C 1.8808546204235927 1.1960490370525756 0.009629024750769936
| 14> C 0.49427289711183303 1.2061621943028515 -0.09133452172765219
| 15> H -2.1548989534496625 1.494347569942854 1.125889101702103
| 16> H -3.4003931594679915 1.0707560122228812 -0.07298881842557142
| 17> H -2.0346000370537043 2.066231915617212 -0.55725103354956
| 18> H -3.4003411190828663 -1.0705279376369112 -0.06965853303644112
| 19> H -2.153065356026343 -1.493775500923864 1.1274367936869887
| 20> H -2.035599770342681 -2.066682272582274 -0.5555431474545057
| 21> H -0.01474644811303472 -2.161011027407783 -0.12333150505435034
| 22> H 2.407767131040429 -2.1450538332982743 0.055521598041182105
| 23> H 3.674881538268402 5.992580287927399e-05 0.14637998944487424
| 24> H 2.407552344114942 2.145098746313439 0.057059014223067264
| 25> H -0.014937568731400779 2.1609665748774884 -0.1217219060612618
| 26> *
| 27>
| 28>                          ****END OF INPUT****

CARTESIAN COORDINATES (ANGSTROEM)
---------------------------------
  C     -2.329738    1.223679    0.072645
  N     -1.623615   -0.000165   -0.315463
  C     -2.329501   -1.223672    0.074329
  C     -0.237083   -0.000027   -0.157959
  C      0.494403   -1.206193   -0.092143
  C      1.880968   -1.196025    0.008815
  C      2.593453    0.000037    0.060608
  C      1.880855    1.196049    0.009629
  C      0.494273    1.206162   -0.091335
  H     -2.154899    1.494348    1.125889
  H     -3.400393    1.070756   -0.072989
  H     -2.034600    2.066232   -0.557251
  H     -3.400341   -1.070528   -0.069659
  H     -2.153065   -1.493776    1.127437
  H     -2.035600   -2.066682   -0.555543
  H     -0.014746   -2.161011   -0.123332
  H      2.407767   -2.145054    0.055522
  H      3.674882    0.000060    0.146380
  H      2.407552    2.145099    0.057059
  H     -0.014938    2.160967   -0.121722

 Total Charge           Charge          ....    0
 Multiplicity           Mult            ....    1
 Number of Electrons    NEL             ....   66
 Basis Dimension        Dim             ....  345

ORBITAL ENERGIES
----------------

  NO   OCC          E(Eh)            E(eV)
   0   2.0000     -16.541938      -450.1290
   1   2.0000     -12.087262      -328.9111
   2   2.0000     -12.074630      -328.5674
   3   2.0000     -12.074313      -328.5588
   4   2.0000     -12.045473      -327.7740
   5   2.0000     -12.045240      -327.7676
   6   2.0000     -12.039206      -327.6034
   7   2.0000     -12.038952      -327.5965
   8   2.0000     -12.034236      -327.4682
   9   2.0000      -1.514254       -41.2050
  10   2.0000      -1.367133       -37.2016
  11   2.0000      -1.270178       -34.5633
  12   2.0000      -1.266558       -34.4648
  13   2.0000      -1.225675       -33.3523
  14   2.0000      -1.170196       -31.8426
  15   2.0000      -1.096982       -29.8504
  16   2.0000      -1.073091       -29.2003
  17   2.0000      -0.996977       -27.1291
  18   2.0000      -0.962715       -26.1968
  19   2.0000      -0.938228       -25.5305
  20   2.0000      -0.911324       -24.7984
  21   2.0000      -0.908973       -24.7344
  22   2.0000      -0.894257       -24.3340
  23   2.0000      -0.867855       -23.6155
  24   2.0000      -0.837749       -22.7963
  25   2.0000      -0.832030       -22.6407
  26   2.0000      -0.821473       -22.3534
  27   2.0000      -0.819096       -22.2887
  28   2.0000      -0.795542       -21.6478
  29   2.0000      -0.775315       -21.0974
  30   2.0000      -0.722232       -19.6529
  31   2.0000      -0.632148       -17.2016
  32   2.0000      -0.605931       -16.4882
  33   0.0000      -0.233380        -6.3506
  34   0.0000      -0.228744        -6.2245
  35   0.0000      -0.118504        -3.2247
  36   0.0000      -0.071118        -1.9352
  37   0.0000      -0.063754        -1.7348

MULLIKEN ATOMIC CHARGES
-----------------------
   0 C :   -0.287077
   1 N :   -0.069840
   2 C :   -0.287000
   3 C :    0.268536
   4 C :   -0.268348
   5 C :   -0.098921
   6 C :   -0.168327
   7 C :   -0.099138
   8 C :   -0.268439
   9 H :    0.121843
  10 H :    0.117102
  11 H :    0.126412
  12 H :    0.117055
  13 H :    0.121870
  14 H :    0.126406
  15 H :    0.107383
  16 H :    0.111418
  17 H :    0.110258
  18 H :    0.111375
  19 H :    0.107433
Sum of atomic charges:   -0.0000000

LOEWDIN ATOMIC CHARGES
----------------------
   0 C :   -0.294549
   1 N :    0.119485
   2 C :   -0.294494
   3 C :   -0.185294
   4 C :   -0.136024
   5 C :   -0.142208
   6 C :   -0.167916
   7 C :   -0.142209
   8 C :   -0.136063
   9 H :    0.108643
  10 H :    0.114930
  11 H :    0.114023
  12 H :    0.114934
  13 H :    0.108664
  14 H :    0.113996
  15 H :    0.141959
  16 H :    0.141273
  17 H :    0.137623
  18 H :    0.141273
  19 H :    0.141955

  Mayer bond orders larger than 0.100000
B(  0-C ,  1-N ) :   0.9667 B(  0-C ,  9-H ) :   0.9708 B(  0-C , 10-H ) :   0.9783
B(  0-C , 11-H ) :   0.9739 B(  1-N ,  2-C ) :   0.9666 B(  1-N ,  3-C ) :   1.1927
B(  2-C , 12-H ) :   0.9783 B(  2-C , 13-H ) :   0.9708 B(  2-C , 14-H ) :   0.9739
B(  3-C ,  4-C ) :   1.3231 B(  3-C ,  8-C ) :   1.3232 B(  4-C ,  5-C ) :   1.4762
B(  4-C , 15-H ) :   0.9693 B(  5-C ,  6-C ) :   1.4233 B(  5-C , 16-H ) :   0.9716
B(  6-C ,  7-C ) :   1.4233 B(  6-C , 17-H ) :   0.9771 B(  7-C ,  8-C ) :   1.4762
B(  7-C , 18-H ) :   0.9717 B(  8-C , 19-H ) :   0.9692

FINAL SINGLE POINT ENERGY      -366.225619701112

DIPOLE MOMENT
-------------

Method             : SCF
Type of density    : Electron Density
Multiplicity       :   1
Irrep              :   0
Energy             :  -366.2378982625122603 Eh
Relativity type    :
Basis              : AO
                                X                 Y                 Z
Electronic contribution:      5.673967010      -0.000473778      -1.165686564
Nuclear contribution   :     -6.302116059       0.000535777       1.355210936
                        -----------------------------------------
Total Dipole Moment    :     -0.628149050       0.000061999       0.189524372
                        -----------------------------------------
Magnitude (a.u.)       :      0.656117916
Magnitude (Debye)      :      1.667719207

Rotational constants in cm-1:             0.116663             0.041010             0.030912
Rotational constants in MHz :          3497.475661          1229.458004           926.712426

                             ****ORCA TERMINATED NORMALLY****
TOTAL RUN TIME: 0 days 0 hours 4 minutes 12 seconds 652 msec
