                         Program Version 6.0.0  -   RELEASE  -
|  1> ! wb97x-v def2-tzvp def2/J RIJCOSX DEFGRID2 scfconv7 GCP(DFT/TZ) printgap
|  2> %output
|  3>     printlevel normal
|  4> end
|  5> %cpcm
|  6>     smd true
|  7>     smdsolvent "water"
|  8> end
|  9> * xyz 0 1
| 10> C -2.3297381168021003 1.2236791901372932 0.0726452122389063
| 11> N -1.623615131253114 -0.00016482836623986287 -0.3154632876471039
| 12> C -2.329501381050727 -1.223671770139204 0.07432862472944869
| 13> C -0.23708256590270557 -2.7145998072906886e-05 -0.157959369846904
| 14> C 0.49440291300738004 -1.2061934409182657 -0.09214282671197892
| 15> C 1.8809683762893894 -1.196025254805167 0.008814871275722192
| 16> C 2.5934532378172386 3.6589945695569026e-05 0.06060761641188726
| 17> C 1.8808546204235927 1.1960490370525756 0.009629024750769936
| 18> C 0.49427289711183303 1.2061621943028515 -0.09133452172765219
| 19> H -2.1548989534496625 1.494347569942854 1.125889101702103
| 20> H -3.4003931594679915 1.0707560122228812 -0.07298881842557142
| 21> H -2.0346000370537043 2.066231915617212 -0.55725103354956
| 22> H -3.4003411190828663 -1.0705279376369112 -0.06965853303644112
| 23> H -2.153065356026343 -1.493775500923864 1.1274367936869887
| 24> H -2.035599770342681 -2.066682272582274 -0.5555431474545057
| 25> H -0.01474644811303472 -2.161011027407783 -0.12333150505435034
| 26> H 2.407767131040429 -2.1450538332982743 0.055521598041182105
| 27> H 3.674881538268402 5.992580287927399e-05 0.14637998944487424
| 28> H 2.407552344114942 2.145098746313439 0.057059014223067264
| 29> H -0.014937568731400779 2.1609665748774884 -0.1217219060612618
| 30> *
| 31>
| 32>                          ****END OF INPUT****

CARTESIAN COORDINATES (ANGSTROEM)
---------------------------------
  C     -2.329738    1.223679    0.072645
  N     -1.623615   -0.000165   -0.315463
  C     -2.329501   -1.223672    0.074329
  C     -0.237083   -0.000027   -0.157959
  C      0.494403   -1.206193   -0.092143
  C      1.880968   -1.196025    0.008815
  C      2.593453    0.000037    0.060608
  C      1.880855    1.196049    0.009629
  C      0.494273    1.206162   -0.091335
  H     -2.154899    1.494348    1.125889
  H     -3.400393    1.070756   -0.072989
  H     -2.034600    2.066232   -0.557251
  H     -3.400341   -1.070528   -0.069659
  H     -2.153065   -1.493776    1.127437
  H     -2.035600   -2.066682   -0.555543
  H     -0.014746   -2.161011   -0.123332
  H      2.407767   -2.145054    0.055522
  H      3.674882    0.000060    0.146380
  H      2.407552    2.145099    0.057059
  H     -0.014938    2.160967   -0.121722

 Total Charge           Charge          ....    0
 Multiplicity           Mult            ....    1
 Number of Electrons    NEL             ....   66
 Basis Dimension        Dim             ....  345

ORBITAL ENERGIES
----------------

  NO   OCC          E(Eh)            E(eV)
   0   2.0000     -16.537236      -450.0011
   1   2.0000     -12.089078      -328.9605
   2   2.0000     -12.059980      -328.1688
   3   2.0000     -12.059670      -328.1603
   4   2.0000     -12.047780      -327.8368
   5   2.0000     -12.047568      -327.8310
   6   2.0000     -12.040230      -327.6313
   7   2.0000     -12.039972      -327.6243
   8   2.0000     -12.036672      -327.5345
   9   2.0000      -1.509303       -41.0702
  10   2.0000      -1.370529       -37.2940
  11   2.0000      -1.270886       -34.5826
  12   2.0000      -1.269033       -34.5321
  13   2.0000      -1.214676       -33.0530
  14   2.0000      -1.165352       -31.7108
  15   2.0000      -1.098220       -29.8841
  16   2.0000      -1.070863       -29.1397
  17   2.0000      -0.991200       -26.9719
  18   2.0000      -0.960563       -26.1382
  19   2.0000      -0.937866       -25.5206
  20   2.0000      -0.905898       -24.6507
  21   2.0000      -0.900348       -24.4997
  22   2.0000      -0.893389       -24.3103
  23   2.0000      -0.867886       -23.6164
  24   2.0000      -0.825195       -22.4547
  25   2.0000      -0.821669       -22.3588
  26   2.0000      -0.818174       -22.2637
  27   2.0000      -0.807108       -21.9625
  28   2.0000      -0.792765       -21.5722
  29   2.0000      -0.775843       -21.1118
  30   2.0000      -0.720470       -19.6050
  31   2.0000      -0.637222       -17.3397
  32   2.0000      -0.608685       -16.5632
  33   0.0000      -0.237989        -6.4760
  34   0.0000      -0.233153        -6.3444
  35   0.0000      -0.110117        -2.9964
  36   0.0000      -0.065847        -1.7918
  37   0.0000      -0.062556        -1.7022

MULLIKEN ATOMIC CHARGES
-----------------------
   0 C :   -0.316976
   1 N :   -0.085851
   2 C :   -0.316924
   3 C :    0.239237
   4 C :   -0.326273
   5 C :   -0.136695
   6 C :   -0.233990
   7 C :   -0.136897
   8 C :   -0.326373
   9 H :    0.131020
  10 H :    0.148767
  11 H :    0.146118
  12 H :    0.148750
  13 H :    0.131029
  14 H :    0.146118
  15 H :    0.159278
  16 H :    0.157539
  17 H :    0.155317
  18 H :    0.157503
  19 H :    0.159304
Sum of atomic charges:   -0.0000000

LOEWDIN ATOMIC CHARGES
----------------------
   0 C :   -0.293663
   1 N :    0.112837
   2 C :   -0.293610
   3 C :   -0.197134
   4 C :   -0.145715
   5 C :   -0.155799
   6 C :   -0.186436
   7 C :   -0.155798
   8 C :   -0.145749
   9 H :    0.112273
  10 H :    0.122761
  11 H :    0.118806
  12 H :    0.122771
  13 H :    0.112284
  14 H :    0.118784
  15 H :    0.153023
  16 H :    0.150748
  17 H :    0.145848
  18 H :    0.150748
  19 H :    0.153020

  Mayer bond orders larger than 0.100000
B(  0-C ,  1-N ) :   0.9528 B(  0-C ,  9-H ) :   0.9697 B(  0-C , 10-H ) :   0.9717
B(  0-C , 11-H ) :   0.9684 B(  1-N ,  2-C ) :   0.9527 B(  1-N ,  3-C ) :   1.2232
B(  2-C , 12-H ) :   0.9717 B(  2-C , 13-H ) :   0.9697 B(  2-C , 14-H ) :   0.9684
B(  3-C ,  4-C ) :   1.2986 B(  3-C ,  8-C ) :   1.2986 B(  4-C ,  5-C ) :   1.4512
B(  4-C , 15-H ) :   0.9749 B(  5-C ,  6-C ) :   1.3977 B(  5-C , 16-H ) :   0.9740
B(  6-C ,  7-C ) :   1.3977 B(  6-C , 17-H ) :   0.9815 B(  7-C ,  8-C ) :   1.4511
B(  7-C , 18-H ) :   0.9740 B(  8-C , 19-H ) :   0.9748

FINAL SINGLE POINT ENERGY      -366.231861347291

DIPOLE MOMENT
-------------

Method             : SCF
Type of density    : Electron Density
Multiplicity       :   1
Irrep              :   0
Energy             :  -366.2441399086909541 Eh
Relativity type    :
Basis              : AO
                                X                 Y                 Z
Electronic contribution:      5.413140574      -0.000422806      -1.078267960
Nuclear contribution   :     -6.302116059       0.000535777       1.355210936
                        -----------------------------------------
Total Dipole Moment    :     -0.888975485       0.000112971       0.276942977
                        -----------------------------------------
Magnitude (a.u.)       :      0.931114836
Magnitude (Debye)      :      2.366705829

Rotational constants in cm-1:             0.116663             0.041010             0.030912
Rotational constants in MHz :          3497.475661          1229.458004           926.712426

                             ****ORCA TERMINATED NORMALLY****
TOTAL RUN TIME: 0 days 0 hours 4 minutes 0 seconds 246 msec
