                         Program Version 6.0.0  -   RELEASE  -
|  1> ! wb97x-v def2-tzvp def2/J RIJCOSX DEFGRID2 scfconv7 GCP(DFT/TZ) printgap
|  2> %output
|  3>     printlevel normal
|  4> end
|  5> * xyz 0 1
|  6> C -2.415469348296955 0.004974855507288058 0.00021601988999390056
|  7> C -0.9848102559179555 0.5298448503329085 -0.00015533825087425397
|  8> C 0.033496291062782686 -0.6244178838603525 -0.00011329511486651554
|  9> C 1.4104843121520958 -0.16107607891917397 -0.001942198997122298
| 10> C 2.543886705319564 0.2558768493509727 0.0018304408233346368
| 11> H -2.607872606206247 -0.6106755915709826 -0.8850764167721061
| 12> H -2.6076517475830174 -0.6100996343132629 0.885946342407077
| 13> H -3.1346564385702695 0.829447216497182 4.755591262105643e-06
| 14> H -0.8109088279766746 1.1565284543621044 -0.8816343524412846
| 15> H -0.8104678486691478 1.1570914758206514 0.8808391460135881
| 16> H -0.13272109079647534 -1.2590441862354917 -0.8797230373754652
| 17> H -0.13184962722241855 -1.258430176659888 0.8800891734623822
| 18> H 3.5480412471274305 0.616148327693972 8.810470638419267e-05
| 19> *
| 20>
| 21>                          ****END OF INPUT****

CARTESIAN COORDINATES (ANGSTROEM)
---------------------------------
  C     -2.415469    0.004975    0.000216
  C     -0.984810    0.529845   -0.000155
  C      0.033496   -0.624418   -0.000113
  C      1.410484   -0.161076   -0.001942
  C      2.543887    0.255877    0.001830
  H     -2.607873   -0.610676   -0.885076
  H     -2.607652   -0.610100    0.885946
  H     -3.134656    0.829447    0.000005
  H     -0.810909    1.156528   -0.881634
  H     -0.810468    1.157091    0.880839
  H     -0.132721   -1.259044   -0.879723
  H     -0.131850   -1.258430    0.880089
  H      3.548041    0.616148    0.000088

 Total Charge           Charge          ....    0
 Multiplicity           Mult            ....    1
 Number of Electrons    NEL             ....   38
 Basis Dimension        Dim             ....  203

ORBITAL ENERGIES
----------------

  NO   OCC          E(Eh)            E(eV)
   0   2.0000     -12.070058      -328.4430
   1   2.0000     -12.052443      -327.9636
   2   2.0000     -12.049378      -327.8803
   3   2.0000     -12.040852      -327.6482
   4   2.0000     -12.035386      -327.4995
   5   2.0000      -1.326526       -36.0966
   6   2.0000      -1.278317       -34.7848
   7   2.0000      -1.205866       -32.8133
   8   2.0000      -1.085647       -29.5420
   9   2.0000      -0.983606       -26.7653
  10   2.0000      -0.938356       -25.5340
  11   2.0000      -0.900494       -24.5037
  12   2.0000      -0.862375       -23.4664
  13   2.0000      -0.832766       -22.6607
  14   2.0000      -0.825265       -22.4566
  15   2.0000      -0.786938       -21.4137
  16   2.0000      -0.765524       -20.8310
  17   2.0000      -0.675280       -18.3753
  18   2.0000      -0.671787       -18.2802
  19   0.0000      -0.161300        -4.3892
  20   0.0000      -0.147563        -4.0154
  21   0.0000      -0.054460        -1.4819
  22   0.0000      -0.008798        -0.2394
  23   0.0000      -0.004616        -0.1256

MULLIKEN ATOMIC CHARGES
-----------------------
   0 C :   -0.338197
   1 C :   -0.135517
   2 C :   -0.296458
   3 C :   -0.058814
   4 C :   -0.122400
   5 H :    0.106014
   6 H :    0.105969
   7 H :    0.118722
   8 H :    0.100445
   9 H :    0.100538
  10 H :    0.121937
  11 H :    0.121610
  12 H :    0.176150
Sum of atomic charges:    0.0000000

LOEWDIN ATOMIC CHARGES
----------------------
   0 C :   -0.306441
   1 C :   -0.270808
   2 C :   -0.243667
   3 C :   -0.115912
   4 C :   -0.114819
   5 H :    0.116857
   6 H :    0.116854
   7 H :    0.118375
   8 H :    0.135443
   9 H :    0.135440
  10 H :    0.152805
  11 H :    0.152819
  12 H :    0.123054

  Mayer bond orders larger than 0.100000
B(  0-C ,  1-C ) :   0.9788 B(  0-C ,  5-H ) :   0.9790 B(  0-C ,  6-H ) :   0.9789
B(  0-C ,  7-H ) :   0.9837 B(  1-C ,  2-C ) :   0.9891 B(  1-C ,  8-H ) :   0.9725
B(  1-C ,  9-H ) :   0.9722 B(  2-C ,  3-C ) :   1.1194 B(  2-C , 10-H ) :   0.9626
B(  2-C , 11-H ) :   0.9605 B(  3-C ,  4-C ) :   2.7965 B(  4-C , 12-H ) :   0.9626

FINAL SINGLE POINT ENERGY      -195.284726799214

DIPOLE MOMENT
-------------

Method             : SCF
Type of density    : Electron Density
Multiplicity       :   1
Irrep              :   0
Energy             :  -195.2924382228138711 Eh
Relativity type    :
Basis              : AO
                                X                 Y                 Z
Electronic contribution:      5.966754320      -0.038671713      -0.001025628
Nuclear contribution   :     -6.309414253       0.010456159       0.000658970
                        -----------------------------------------
Total Dipole Moment    :     -0.342659932      -0.028215554      -0.000366658
                        -----------------------------------------
Magnitude (a.u.)       :      0.343819838
Magnitude (Debye)      :      0.873920577

Rotational constants in cm-1:             0.781197             0.074679             0.070861
Rotational constants in MHz :         23419.682848          2238.830408          2124.350806

                             ****ORCA TERMINATED NORMALLY****
TOTAL RUN TIME: 0 days 0 hours 0 minutes 56 seconds 533 msec
