                         Program Version 6.0.0  -   RELEASE  -
|  1> ! wb97x-v def2-tzvp def2/J RIJCOSX DEFGRID2 scfconv7 GCP(DFT/TZ) printgap
|  2> %output
|  3>     printlevel normal
|  4> end
|  5> %cpcm
|  6>     smd true
|  7>     smdsolvent "water"
|  8> end
|  9> * xyz 0 1
| 10> C -2.415469348296955 0.004974855507288058 0.00021601988999390056
| 11> C -0.9848102559179555 0.5298448503329085 -0.00015533825087425397
| 12> C 0.033496291062782686 -0.6244178838603525 -0.00011329511486651554
| 13> C 1.4104843121520958 -0.16107607891917397 -0.001942198997122298
| 14> C 2.543886705319564 0.2558768493509727 0.0018304408233346368
| 15> H -2.607872606206247 -0.6106755915709826 -0.8850764167721061
| 16> H -2.6076517475830174 -0.6100996343132629 0.885946342407077
| 17> H -3.1346564385702695 0.829447216497182 4.755591262105643e-06
| 18> H -0.8109088279766746 1.1565284543621044 -0.8816343524412846
| 19> H -0.8104678486691478 1.1570914758206514 0.8808391460135881
| 20> H -0.13272109079647534 -1.2590441862354917 -0.8797230373754652
| 21> H -0.13184962722241855 -1.258430176659888 0.8800891734623822
| 22> H 3.5480412471274305 0.616148327693972 8.810470638419267e-05
| 23> *
| 24>
| 25>                          ****END OF INPUT****

CARTESIAN COORDINATES (ANGSTROEM)
---------------------------------
  C     -2.415469    0.004975    0.000216
  C     -0.984810    0.529845   -0.000155
  C      0.033496   -0.624418   -0.000113
  C      1.410484   -0.161076   -0.001942
  C      2.543887    0.255877    0.001830
  H     -2.607873   -0.610676   -0.885076
  H     -2.607652   -0.610100    0.885946
  H     -3.134656    0.829447    0.000005
  H     -0.810909    1.156528   -0.881634
  H     -0.810468    1.157091    0.880839
  H     -0.132721   -1.259044   -0.879723
  H     -0.131850   -1.258430    0.880089
  H      3.548041    0.616148    0.000088

 Total Charge           Charge          ....    0
 Multiplicity           Mult            ....    1
 Number of Electrons    NEL             ....   38
 Basis Dimension        Dim             ....  203

ORBITAL ENERGIES
----------------

  NO   OCC          E(Eh)            E(eV)
   0   2.0000     -12.060741      -328.1894
   1   2.0000     -12.055980      -328.0599
   2   2.0000     -12.042339      -327.6887
   3   2.0000     -12.038931      -327.5960
   4   2.0000     -12.027669      -327.2895
   5   2.0000      -1.324739       -36.0480
   6   2.0000      -1.277523       -34.7632
   7   2.0000      -1.198660       -32.6172
   8   2.0000      -1.075905       -29.2769
   9   2.0000      -0.981915       -26.7193
  10   2.0000      -0.933570       -25.4037
  11   2.0000      -0.890052       -24.2196
  12   2.0000      -0.852454       -23.1965
  13   2.0000      -0.821931       -22.3659
  14   2.0000      -0.814382       -22.1605
  15   2.0000      -0.775929       -21.1141
  16   2.0000      -0.754234       -20.5238
  17   2.0000      -0.682044       -18.5594
  18   2.0000      -0.678132       -18.4529
  19   0.0000      -0.165092        -4.4924
  20   0.0000      -0.151914        -4.1338
  21   0.0000      -0.049835        -1.3561
  22   0.0000       0.000527         0.0143
  23   0.0000       0.007363         0.2003

MULLIKEN ATOMIC CHARGES
-----------------------
   0 C :   -0.392294
   1 C :   -0.150329
   2 C :   -0.292844
   3 C :   -0.100990
   4 C :   -0.194027
   5 H :    0.123474
   6 H :    0.123435
   7 H :    0.132838
   8 H :    0.110915
   9 H :    0.110950
  10 H :    0.148040
  11 H :    0.147857
  12 H :    0.232976
Sum of atomic charges:    0.0000000

LOEWDIN ATOMIC CHARGES
----------------------
   0 C :   -0.310113
   1 C :   -0.272010
   2 C :   -0.239989
   3 C :   -0.131932
   4 C :   -0.141365
   5 H :    0.120294
   6 H :    0.120290
   7 H :    0.120452
   8 H :    0.136729
   9 H :    0.136714
  10 H :    0.161242
  11 H :    0.161258
  12 H :    0.138430

  Mayer bond orders larger than 0.100000
B(  0-C ,  1-C ) :   0.9779 B(  0-C ,  5-H ) :   0.9774 B(  0-C ,  6-H ) :   0.9773
B(  0-C ,  7-H ) :   0.9798 B(  1-C ,  2-C ) :   0.9839 B(  1-C ,  8-H ) :   0.9712
B(  1-C ,  9-H ) :   0.9709 B(  2-C ,  3-C ) :   1.1396 B(  2-C ,  4-C ) :  -0.1081
B(  2-C , 10-H ) :   0.9540 B(  2-C , 11-H ) :   0.9533 B(  3-C ,  4-C ) :   2.7401
B(  4-C , 12-H ) :   0.9632

FINAL SINGLE POINT ENERGY      -195.285670340840

DIPOLE MOMENT
-------------

Method             : SCF
Type of density    : Electron Density
Multiplicity       :   1
Irrep              :   0
Energy             :  -195.2933817644399994 Eh
Relativity type    :
Basis              : AO
                                X                 Y                 Z
Electronic contribution:      5.845827435      -0.100804284      -0.001298149
Nuclear contribution   :     -6.309414253       0.010456159       0.000658970
                        -----------------------------------------
Total Dipole Moment    :     -0.463586818      -0.090348125      -0.000639178
                        -----------------------------------------
Magnitude (a.u.)       :      0.472309146
Magnitude (Debye)      :      1.200514443

Rotational constants in cm-1:             0.781197             0.074679             0.070861
Rotational constants in MHz :         23419.682848          2238.830408          2124.350806

                             ****ORCA TERMINATED NORMALLY****
TOTAL RUN TIME: 0 days 0 hours 0 minutes 54 seconds 237 msec
