                         Program Version 6.0.0  -   RELEASE  -
|  1> ! wb97x-v def2-tzvp def2/J RIJCOSX DEFGRID2 scfconv7 GCP(DFT/TZ) printgap
|  2> %output
|  3>     printlevel normal
|  4> end
|  5> * xyz 0 1
|  6> C -3.4791886420184195 0.33539436287284063 -7.901871422443451e-05
|  7> C -2.740808639486492 1.5161580927997544 -8.701601160335423e-05
|  8> C -1.349355422819493 1.4590475223085657 -2.3102896717069434e-05
|  9> C -0.7056488018345908 0.22675600400596393 2.5294494951441427e-05
| 10> C -1.4399187701021092 -0.9623888874966532 1.6498860321596265e-05
| 11> C -2.836048212993773 -0.8962657721985583 -3.1035863620603176e-05
| 12> O -0.7711972906222769 -2.154493237014164 7.096205776776864e-05
| 13> I 1.409578967467709 0.15034849176648613 7.471413461344497e-05
| 14> H -4.563792588175044 0.3682266720437362 -0.00011571800686568857
| 15> H -3.2377498423549165 2.4802559101946846 -0.00012032862472328373
| 16> H -0.7644532475809752 2.3720210238248054 -3.711038543376746e-05
| 17> H -3.4062541159413304 -1.8215351631893484 -2.581393563481674e-05
| 18> H -1.4157188696604297 -2.876808814848848 0.00010822144172899825
| 19> *
| 20>
| 21>                          ****END OF INPUT****

CARTESIAN COORDINATES (ANGSTROEM)
---------------------------------
  C     -3.479189    0.335394   -0.000079
  C     -2.740809    1.516158   -0.000087
  C     -1.349355    1.459048   -0.000023
  C     -0.705649    0.226756    0.000025
  C     -1.439919   -0.962389    0.000016
  C     -2.836048   -0.896266   -0.000031
  O     -0.771197   -2.154493    0.000071
  I      1.409579    0.150348    0.000075
  H     -4.563793    0.368227   -0.000116
  H     -3.237750    2.480256   -0.000120
  H     -0.764453    2.372021   -0.000037
  H     -3.406254   -1.821535   -0.000026
  H     -1.415719   -2.876809    0.000108

 Total Charge           Charge          ....    0
 Multiplicity           Mult            ....    1
 Number of Electrons    NEL             ....   74
 Basis Dimension        Dim             ....  297

ORBITAL ENERGIES
----------------

  NO   OCC          E(Eh)            E(eV)
   0   2.0000     -21.717428      -590.9613
   1   2.0000     -12.132790      -330.1500
   2   2.0000     -12.100691      -329.2765
   3   2.0000     -12.069873      -328.4379
   4   2.0000     -12.068674      -328.4053
   5   2.0000     -12.066176      -328.3373
   6   2.0000     -12.058316      -328.1234
   7   2.0000      -8.120993      -220.9835
   8   2.0000      -6.092922      -165.7968
   9   2.0000      -6.081747      -165.4927
  10   2.0000      -6.081440      -165.4844
  11   2.0000      -3.013346       -81.9973
  12   2.0000      -3.009910       -81.9038
  13   2.0000      -3.009598       -81.8953
  14   2.0000      -2.999382       -81.6173
  15   2.0000      -2.999363       -81.6168
  16   2.0000      -1.734261       -47.1917
  17   2.0000      -1.401771       -38.1441
  18   2.0000      -1.299392       -35.3583
  19   2.0000      -1.294305       -35.2198
  20   2.0000      -1.182374       -32.1740
  21   2.0000      -1.170848       -31.8604
  22   2.0000      -1.114512       -30.3274
  23   2.0000      -1.078567       -29.3493
  24   2.0000      -1.019028       -27.7292
  25   2.0000      -0.963070       -26.2065
  26   2.0000      -0.956993       -26.0411
  27   2.0000      -0.949427       -25.8352
  28   2.0000      -0.909522       -24.7494
  29   2.0000      -0.867323       -23.6011
  30   2.0000      -0.841344       -22.8941
  31   2.0000      -0.788843       -21.4655
  32   2.0000      -0.777980       -21.1699
  33   2.0000      -0.678894       -18.4737
  34   2.0000      -0.652584       -17.7577
  35   2.0000      -0.629785       -17.1373
  36   2.0000      -0.612058       -16.6549
  37   0.0000      -0.277362        -7.5474
  38   0.0000      -0.262310        -7.1378
  39   0.0000      -0.256895        -6.9905
  40   0.0000      -0.144521        -3.9326
  41   0.0000      -0.087234        -2.3737

MULLIKEN ATOMIC CHARGES
-----------------------
   0 C :   -0.127804
   1 C :   -0.131915
   2 C :   -0.179865
   3 C :    0.000607
   4 C :    0.183137
   5 C :   -0.190533
   6 O :   -0.377400
   7 I :    0.008387
   8 H :    0.124775
   9 H :    0.122460
  10 H :    0.142822
  11 H :    0.108325
  12 H :    0.317005
Sum of atomic charges:    0.0000000

LOEWDIN ATOMIC CHARGES
----------------------
   0 C :   -0.133280
   1 C :   -0.151689
   2 C :   -0.145177
   3 C :   -0.344150
   4 C :   -0.281958
   5 C :   -0.141050
   6 O :    0.083743
   7 I :    0.345107
   8 H :    0.144961
   9 H :    0.143500
  10 H :    0.148116
  11 H :    0.141941
  12 H :    0.189936

  Mayer bond orders larger than 0.100000
B(  0-C ,  1-C ) :   1.4305 B(  0-C ,  5-C ) :   1.4393 B(  0-C ,  8-H ) :   0.9626
B(  1-C ,  2-C ) :   1.4312 B(  1-C ,  9-H ) :   0.9717 B(  2-C ,  3-C ) :   1.4328
B(  2-C , 10-H ) :   0.9566 B(  3-C ,  4-C ) :   1.3526 B(  3-C ,  7-I ) :   1.1111
B(  4-C ,  5-C ) :   1.3760 B(  4-C ,  6-O ) :   1.2024 B(  5-C , 11-H ) :   0.9611
B(  6-O , 12-H ) :   0.8834

FINAL SINGLE POINT ENERGY      -604.577091856513

DIPOLE MOMENT
-------------

Method             : SCF
Type of density    : Electron Density
Multiplicity       :   1
Irrep              :   0
Energy             :  -604.5856025098127020 Eh
Relativity type    :
Basis              : AO
                                X                 Y                 Z
Electronic contribution:    113.040322048       8.519976336       0.003036153
Nuclear contribution   :   -114.129927654      -8.815793790      -0.003044529
                        -----------------------------------------
Total Dipole Moment    :     -1.089605606      -0.295817454      -0.000008377
                        -----------------------------------------
Magnitude (a.u.)       :      1.129047538
Magnitude (Debye)      :      2.869810774

Rotational constants in cm-1:             0.095546             0.024337             0.019397
Rotational constants in MHz :          2864.399399           729.619471           581.499889

                             ****ORCA TERMINATED NORMALLY****
TOTAL RUN TIME: 0 days 0 hours 2 minutes 30 seconds 336 msec
