                         Program Version 6.0.0  -   RELEASE  -
|  1> ! wb97x-v def2-tzvp def2/J RIJCOSX DEFGRID2 scfconv7 GCP(DFT/TZ) printgap
|  2> %output
|  3>     printlevel normal
|  4> end
|  5> %cpcm
|  6>     smd true
|  7>     smdsolvent "water"
|  8> end
|  9> * xyz 0 1
| 10> C -3.4791886420184195 0.33539436287284063 -7.901871422443451e-05
| 11> C -2.740808639486492 1.5161580927997544 -8.701601160335423e-05
| 12> C -1.349355422819493 1.4590475223085657 -2.3102896717069434e-05
| 13> C -0.7056488018345908 0.22675600400596393 2.5294494951441427e-05
| 14> C -1.4399187701021092 -0.9623888874966532 1.6498860321596265e-05
| 15> C -2.836048212993773 -0.8962657721985583 -3.1035863620603176e-05
| 16> O -0.7711972906222769 -2.154493237014164 7.096205776776864e-05
| 17> I 1.409578967467709 0.15034849176648613 7.471413461344497e-05
| 18> H -4.563792588175044 0.3682266720437362 -0.00011571800686568857
| 19> H -3.2377498423549165 2.4802559101946846 -0.00012032862472328373
| 20> H -0.7644532475809752 2.3720210238248054 -3.711038543376746e-05
| 21> H -3.4062541159413304 -1.8215351631893484 -2.581393563481674e-05
| 22> H -1.4157188696604297 -2.876808814848848 0.00010822144172899825
| 23> *
| 24>
| 25>                          ****END OF INPUT****

CARTESIAN COORDINATES (ANGSTROEM)
---------------------------------
  C     -3.479189    0.335394   -0.000079
  C     -2.740809    1.516158   -0.000087
  C     -1.349355    1.459048   -0.000023
  C     -0.705649    0.226756    0.000025
  C     -1.439919   -0.962389    0.000016
  C     -2.836048   -0.896266   -0.000031
  O     -0.771197   -2.154493    0.000071
  I      1.409579    0.150348    0.000075
  H     -4.563793    0.368227   -0.000116
  H     -3.237750    2.480256   -0.000120
  H     -0.764453    2.372021   -0.000037
  H     -3.406254   -1.821535   -0.000026
  H     -1.415719   -2.876809    0.000108

 Total Charge           Charge          ....    0
 Multiplicity           Mult            ....    1
 Number of Electrons    NEL             ....   74
 Basis Dimension        Dim             ....  297

ORBITAL ENERGIES
----------------

  NO   OCC          E(Eh)            E(eV)
   0   2.0000     -21.708493      -590.7181
   1   2.0000     -12.125759      -329.9587
   2   2.0000     -12.095313      -329.1302
   3   2.0000     -12.062007      -328.2239
   4   2.0000     -12.057857      -328.1110
   5   2.0000     -12.054324      -328.0148
   6   2.0000     -12.049237      -327.8764
   7   2.0000      -8.122928      -221.0361
   8   2.0000      -6.094732      -165.8461
   9   2.0000      -6.083722      -165.5465
  10   2.0000      -6.083433      -165.5386
  11   2.0000      -3.015112       -82.0454
  12   2.0000      -3.011779       -81.9547
  13   2.0000      -3.011479       -81.9465
  14   2.0000      -3.001453       -81.6737
  15   2.0000      -3.001433       -81.6731
  16   2.0000      -1.725493       -46.9531
  17   2.0000      -1.394845       -37.9557
  18   2.0000      -1.292388       -35.1677
  19   2.0000      -1.285957       -34.9927
  20   2.0000      -1.180722       -32.1291
  21   2.0000      -1.162755       -31.6402
  22   2.0000      -1.107552       -30.1380
  23   2.0000      -1.069858       -29.1123
  24   2.0000      -1.013205       -27.5707
  25   2.0000      -0.956710       -26.0334
  26   2.0000      -0.949185       -25.8286
  27   2.0000      -0.938746       -25.5446
  28   2.0000      -0.897018       -24.4091
  29   2.0000      -0.856929       -23.3182
  30   2.0000      -0.830258       -22.5925
  31   2.0000      -0.783346       -21.3159
  32   2.0000      -0.773436       -21.0463
  33   2.0000      -0.674898       -18.3649
  34   2.0000      -0.645609       -17.5679
  35   2.0000      -0.633461       -17.2374
  36   2.0000      -0.613166       -16.6851
  37   0.0000      -0.273586        -7.4446
  38   0.0000      -0.256589        -6.9821
  39   0.0000      -0.249251        -6.7825
  40   0.0000      -0.135253        -3.6804
  41   0.0000      -0.079775        -2.1708

MULLIKEN ATOMIC CHARGES
-----------------------
   0 C :   -0.150602
   1 C :   -0.181966
   2 C :   -0.221047
   3 C :    0.003676
   4 C :    0.200088
   5 C :   -0.243083
   6 O :   -0.458635
   7 I :   -0.015275
   8 H :    0.168321
   9 H :    0.164634
  10 H :    0.179744
  11 H :    0.170915
  12 H :    0.383230
Sum of atomic charges:    0.0000000

LOEWDIN ATOMIC CHARGES
----------------------
   0 C :   -0.137837
   1 C :   -0.160643
   2 C :   -0.154188
   3 C :   -0.356355
   4 C :   -0.288435
   5 C :   -0.132551
   6 O :    0.058805
   7 I :    0.332101
   8 H :    0.155131
   9 H :    0.152485
  10 H :    0.156364
  11 H :    0.159450
  12 H :    0.215674

  Mayer bond orders larger than 0.100000
B(  0-C ,  1-C ) :   1.3981 B(  0-C ,  5-C ) :   1.3982 B(  0-C ,  8-H ) :   0.9650
B(  1-C ,  2-C ) :   1.4240 B(  1-C ,  9-H ) :   0.9753 B(  2-C ,  3-C ) :   1.4014
B(  2-C , 10-H ) :   0.9607 B(  3-C ,  4-C ) :   1.3438 B(  3-C ,  7-I ) :   1.0795
B(  4-C ,  5-C ) :   1.3765 B(  4-C ,  6-O ) :   1.1548 B(  5-C , 11-H ) :   0.9672
B(  6-O , 12-H ) :   0.8416

FINAL SINGLE POINT ENERGY      -604.588776968169

DIPOLE MOMENT
-------------

Method             : SCF
Type of density    : Electron Density
Multiplicity       :   1
Irrep              :   0
Energy             :  -604.5972876214693770 Eh
Relativity type    :
Basis              : AO
                                X                 Y                 Z
Electronic contribution:    112.710529517       8.455046606       0.003032728
Nuclear contribution   :   -114.129927654      -8.815793790      -0.003044529
                        -----------------------------------------
Total Dipole Moment    :     -1.419398137      -0.360747184      -0.000011801
                        -----------------------------------------
Magnitude (a.u.)       :      1.464523678
Magnitude (Debye)      :      3.722523356

Rotational constants in cm-1:             0.095546             0.024337             0.019397
Rotational constants in MHz :          2864.399399           729.619471           581.499889

                             ****ORCA TERMINATED NORMALLY****
TOTAL RUN TIME: 0 days 0 hours 2 minutes 31 seconds 532 msec
