                         Program Version 6.0.0  -   RELEASE  -
|  1> ! pbe def2-sv(p) def2/J RI DEFGRID1 loosescf d4 GCP(DFT/SV(P)) printgap
|  2> %output
|  3>     printlevel normal
|  4> end
|  5> * xyz 0 1
|  6> C 1.7138536398 0.9430905663 -0.0013400052
|  7> C 0.7132479359 -0.1778215217 0.0001215376
|  8> C 1.1331093353 -1.4424774737 0.0013535244
|  9> C -0.7132473222 0.1778509116 0.0001155507
| 10> C -1.1331247623 1.4424597988 0.0013856911
| 11> C -1.7138355285 -0.9430905251 -0.0013372056
| 12> H 1.5851035652 1.5678268591 -0.8832382938
| 13> H 2.7251984576 0.5459316539 -0.0030477962
| 14> H 1.5879940151 1.5672886264 0.8813487458
| 15> H 0.4671158749 -2.2857432652 0.0021530672
| 16> H 2.1841899967 -1.6784150235 0.0011480412
| 17> H -2.1842125848 1.6783595367 0.0009888379
| 18> H -0.4671680387 2.2857220648 0.0020392141
| 19> H -1.5856246364 -1.5673557621 -0.8836645092
| 20> H -1.5874451206 -1.5677784364 0.880936621
| 21> H -2.7251908319 -0.5459763507 -0.0022281774
| 22> *
| 23>
| 24>                          ****END OF INPUT****

CARTESIAN COORDINATES (ANGSTROEM)
---------------------------------
  C      1.713854    0.943091   -0.001340
  C      0.713248   -0.177822    0.000122
  C      1.133109   -1.442477    0.001354
  C     -0.713247    0.177851    0.000116
  C     -1.133125    1.442460    0.001386
  C     -1.713836   -0.943091   -0.001337
  H      1.585104    1.567827   -0.883238
  H      2.725198    0.545932   -0.003048
  H      1.587994    1.567289    0.881349
  H      0.467116   -2.285743    0.002153
  H      2.184190   -1.678415    0.001148
  H     -2.184213    1.678360    0.000989
  H     -0.467168    2.285722    0.002039
  H     -1.585625   -1.567356   -0.883665
  H     -1.587445   -1.567778    0.880937
  H     -2.725191   -0.545976   -0.002228

 Total Charge           Charge          ....    0
 Multiplicity           Mult            ....    1
 Number of Electrons    NEL             ....   46
 Basis Dimension        Dim             ....  104

ORBITAL ENERGIES
----------------

  NO   OCC          E(Eh)            E(eV)
   0   2.0000      -9.903136      -269.4780
   1   2.0000      -9.903070      -269.4762
   2   2.0000      -9.879548      -268.8362
   3   2.0000      -9.879548      -268.8362
   4   2.0000      -9.875751      -268.7328
   5   2.0000      -9.875695      -268.7313
   6   2.0000      -0.749862       -20.4048
   7   2.0000      -0.679829       -18.4991
   8   2.0000      -0.628584       -17.1046
   9   2.0000      -0.596267       -16.2253
  10   2.0000      -0.530004       -14.4222
  11   2.0000      -0.443439       -12.0666
  12   2.0000      -0.432828       -11.7779
  13   2.0000      -0.402586       -10.9549
  14   2.0000      -0.383342       -10.4313
  15   2.0000      -0.363281        -9.8854
  16   2.0000      -0.357619        -9.7313
  17   2.0000      -0.343107        -9.3364
  18   2.0000      -0.332351        -9.0437
  19   2.0000      -0.313571        -8.5327
  20   2.0000      -0.288881        -7.8608
  21   2.0000      -0.257276        -7.0008
  22   2.0000      -0.205648        -5.5960
  23   0.0000      -0.054035        -1.4704
  24   0.0000       0.047147         1.2829
  25   0.0000       0.048440         1.3181
  26   0.0000       0.069058         1.8792
  27   0.0000       0.083016         2.2590

MULLIKEN ATOMIC CHARGES
-----------------------
   0 C :   -0.229033
   1 C :   -0.019558
   2 C :   -0.258661
   3 C :   -0.019526
   4 C :   -0.258660
   5 C :   -0.229050
   6 H :    0.116220
   7 H :    0.097228
   8 H :    0.116257
   9 H :    0.089659
  10 H :    0.087886
  11 H :    0.087885
  12 H :    0.089649
  13 H :    0.116222
  14 H :    0.116258
  15 H :    0.097225
Sum of atomic charges:   -0.0000000

LOEWDIN ATOMIC CHARGES
----------------------
   0 C :   -0.322993
   1 C :   -0.050863
   2 C :   -0.250251
   3 C :   -0.050866
   4 C :   -0.250248
   5 C :   -0.322993
   6 H :    0.130397
   7 H :    0.124104
   8 H :    0.130436
   9 H :    0.119246
  10 H :    0.119927
  11 H :    0.119928
  12 H :    0.119246
  13 H :    0.130404
  14 H :    0.130426
  15 H :    0.124101

  Mayer bond orders larger than 0.100000
B(  0-C ,  1-C ) :   1.1348 B(  0-C ,  6-H ) :   0.9238 B(  0-C ,  7-H ) :   0.9375
B(  0-C ,  8-H ) :   0.9238 B(  1-C ,  2-C ) :   1.9522 B(  1-C ,  3-C ) :   1.0928
B(  2-C ,  4-C ) :   0.1394 B(  2-C ,  9-H ) :   0.8947 B(  2-C , 10-H ) :   0.9037
B(  3-C ,  4-C ) :   1.9523 B(  3-C ,  5-C ) :   1.1348 B(  4-C , 11-H ) :   0.9037
B(  4-C , 12-H ) :   0.8947 B(  5-C , 13-H ) :   0.9238 B(  5-C , 14-H ) :   0.9238
B(  5-C , 15-H ) :   0.9375

Dispersion correction           -0.012860742
FINAL SINGLE POINT ENERGY      -234.045348636536

DIPOLE MOMENT
-------------

Method             : SCF
Type of density    : Electron Density
Multiplicity       :   1
Irrep              :   0
Energy             :  -234.0929396793621891 Eh
Relativity type    :
Basis              : AO
                                X                 Y                 Z
Electronic contribution:      0.000039433       0.000144213       0.002972605
Nuclear contribution   :     -0.000036872      -0.000131434      -0.003343854
                        -----------------------------------------
Total Dipole Moment    :      0.000002561       0.000012779      -0.000371249
                        -----------------------------------------
Magnitude (a.u.)       :      0.000371478
Magnitude (Debye)      :      0.000944221

Rotational constants in cm-1:             0.165324             0.110949             0.068076
Rotational constants in MHz :          4956.282311          3326.169588          2040.863752

                             ****ORCA TERMINATED NORMALLY****
TOTAL RUN TIME: 0 days 0 hours 0 minutes 5 seconds 642 msec
