                         Program Version 6.0.0  -   RELEASE  -
|  1> ! pbe def2-sv(p) def2/J RI DEFGRID1 loosescf d4 GCP(DFT/SV(P)) printgap
|  2> %output
|  3>     printlevel normal
|  4> end
|  5> * xyz 0 1
|  6> C 4.1102222812 -0.0735356558 0.0004821133
|  7> C 3.7376501124 1.2581237031 4.03979e-05
|  8> C 2.3958008937 1.6056111034 -0.0003425332
|  9> C 1.4278458097 0.6165438218 -0.0003095747
| 10> C 1.802696586 -0.7255476577 -1.40884e-05
| 11> C 3.1440579086 -1.0672987186 0.0004364011
| 12> O 0.8718739696 -1.74550224 -0.0001692946
| 13> C -0.4462407252 -1.3620086277 -0.0001621503
| 14> C -1.414155869 -2.3523264795 -0.0001060511
| 15> C -2.7564400085 -2.0091392587 3.20922e-05
| 16> C -3.1409986604 -0.6817886009 0.0001818864
| 17> C -2.1679531121 0.3058689904 7.39874e-05
| 18> C -0.8168059559 -0.0152097158 -0.0001841849
| 19> O 0.1015283 1.0053474085 -0.0005563318
| 20> Cl -2.6102188096 1.9825685722 0.0002485809
| 21> H 5.1524801366 -0.3472720841 0.0009153166
| 22> H 4.4855411211 2.0340044187 6.67952e-05
| 23> H 2.0763152367 2.6349335205 -0.0006240549
| 24> H 3.4060185077 -2.1124246708 0.0007491447
| 25> H -1.0924424869 -3.3801798035 -0.000225561
| 26> H -3.5048267413 -2.7834350153 -2.37037e-05
| 27> H -4.179746568 -0.399210502 0.0003879105
| 28> *
| 29>
| 30>                          ****END OF INPUT****

CARTESIAN COORDINATES (ANGSTROEM)
---------------------------------
  C      4.110222   -0.073536    0.000482
  C      3.737650    1.258124    0.000040
  C      2.395801    1.605611   -0.000343
  C      1.427846    0.616544   -0.000310
  C      1.802697   -0.725548   -0.000014
  C      3.144058   -1.067299    0.000436
  O      0.871874   -1.745502   -0.000169
  C     -0.446241   -1.362009   -0.000162
  C     -1.414156   -2.352326   -0.000106
  C     -2.756440   -2.009139    0.000032
  C     -3.140999   -0.681789    0.000182
  C     -2.167953    0.305869    0.000074
  C     -0.816806   -0.015210   -0.000184
  O      0.101528    1.005347   -0.000556
  Cl    -2.610219    1.982569    0.000249
  H      5.152480   -0.347272    0.000915
  H      4.485541    2.034004    0.000067
  H      2.076315    2.634934   -0.000624
  H      3.406019   -2.112425    0.000749
  H     -1.092442   -3.380180   -0.000226
  H     -3.504827   -2.783435   -0.000024
  H     -4.179747   -0.399211    0.000388

 Total Charge           Charge          ....    0
 Multiplicity           Mult            ....    1
 Number of Electrons    NEL             ....  112
 Basis Dimension        Dim             ....  228

ORBITAL ENERGIES
----------------

  NO   OCC          E(Eh)            E(eV)
   0   2.0000    -100.642666     -2738.6262
   1   2.0000     -18.824499      -512.2407
   2   2.0000     -18.823829      -512.2224
   3   2.0000      -9.973389      -271.3897
   4   2.0000      -9.972082      -271.3541
   5   2.0000      -9.968349      -271.2526
   6   2.0000      -9.968069      -271.2449
   7   2.0000      -9.957510      -270.9576
   8   2.0000      -9.906772      -269.5770
   9   2.0000      -9.906433      -269.5678
  10   2.0000      -9.905022      -269.5293
  11   2.0000      -9.904969      -269.5279
  12   2.0000      -9.904543      -269.5163
  13   2.0000      -9.902229      -269.4533
  14   2.0000      -9.901880      -269.4439
  15   2.0000      -9.178207      -249.7517
  16   2.0000      -7.009794      -190.7462
  17   2.0000      -6.998190      -190.4304
  18   2.0000      -6.997422      -190.4095
  19   2.0000      -1.024665       -27.8826
  20   2.0000      -0.990123       -26.9426
  21   2.0000      -0.822246       -22.3745
  22   2.0000      -0.790404       -21.5080
  23   2.0000      -0.766360       -20.8537
  24   2.0000      -0.704285       -19.1646
  25   2.0000      -0.701900       -19.0997
  26   2.0000      -0.665445       -18.1077
  27   2.0000      -0.659528       -17.9467
  28   2.0000      -0.607825       -16.5398
  29   2.0000      -0.581680       -15.8283
  30   2.0000      -0.553976       -15.0744
  31   2.0000      -0.541354       -14.7310
  32   2.0000      -0.525543       -14.3007
  33   2.0000      -0.474115       -12.9013
  34   2.0000      -0.465046       -12.6545
  35   2.0000      -0.441262       -12.0074
  36   2.0000      -0.439604       -11.9622
  37   2.0000      -0.436893       -11.8885
  38   2.0000      -0.408997       -11.1294
  39   2.0000      -0.405005       -11.0207
  40   2.0000      -0.399573       -10.8729
  41   2.0000      -0.375222       -10.2103
  42   2.0000      -0.373770       -10.1708
  43   2.0000      -0.360732        -9.8160
  44   2.0000      -0.360139        -9.7999
  45   2.0000      -0.351364        -9.5611
  46   2.0000      -0.335012        -9.1161
  47   2.0000      -0.333115        -9.0645
  48   2.0000      -0.319375        -8.6906
  49   2.0000      -0.297525        -8.0961
  50   2.0000      -0.292836        -7.9685
  51   2.0000      -0.268430        -7.3044
  52   2.0000      -0.249232        -6.7819
  53   2.0000      -0.239485        -6.5167
  54   2.0000      -0.214501        -5.8369
  55   2.0000      -0.181691        -4.9441
  56   0.0000      -0.056595        -1.5400
  57   0.0000      -0.045104        -1.2273
  58   0.0000      -0.043741        -1.1903
  59   0.0000      -0.013124        -0.3571
  60   0.0000      -0.003175        -0.0864

MULLIKEN ATOMIC CHARGES
-----------------------
   0 C :   -0.038859
   1 C :   -0.040979
   2 C :   -0.158415
   3 C :    0.208377
   4 C :    0.199504
   5 C :   -0.158522
   6 O :   -0.211607
   7 C :    0.181055
   8 C :   -0.139670
   9 C :   -0.054242
  10 C :   -0.097230
  11 C :    0.017126
  12 C :    0.164168
  13 O :   -0.203063
  14 Cl:   -0.055139
  15 H :    0.059344
  16 H :    0.059980
  17 H :    0.055804
  18 H :    0.051872
  19 H :    0.050638
  20 H :    0.063706
  21 H :    0.046152
Sum of atomic charges:   -0.0000000

LOEWDIN ATOMIC CHARGES
----------------------
   0 C :   -0.125694
   1 C :   -0.125799
   2 C :   -0.132034
   3 C :    0.019443
   4 C :    0.018074
   5 C :   -0.133903
   6 O :   -0.027705
   7 C :    0.020449
   8 C :   -0.141783
   9 C :   -0.121101
  10 C :   -0.147290
  11 C :   -0.147723
  12 C :   -0.004695
  13 O :   -0.025343
  14 Cl:    0.142242
  15 H :    0.128133
  16 H :    0.128383
  17 H :    0.138216
  18 H :    0.136362
  19 H :    0.137158
  20 H :    0.131018
  21 H :    0.133592

  Mayer bond orders larger than 0.100000
B(  0-C ,  1-C ) :   1.3703 B(  0-C ,  5-C ) :   1.3250 B(  0-C , 15-H ) :   0.9694
B(  1-C ,  2-C ) :   1.3234 B(  1-C , 16-H ) :   0.9694 B(  2-C ,  3-C ) :   1.3882
B(  2-C , 17-H ) :   0.9670 B(  3-C ,  4-C ) :   1.2884 B(  3-C , 13-O ) :   1.0378
B(  4-C ,  5-C ) :   1.3873 B(  4-C ,  6-O ) :   1.0481 B(  5-C , 18-H ) :   0.9670
B(  6-O ,  7-C ) :   1.0609 B(  7-C ,  8-C ) :   1.3773 B(  7-C , 12-C ) :   1.2730
B(  8-C ,  9-C ) :   1.3038 B(  8-C , 19-H ) :   0.9710 B(  9-C , 10-C ) :   1.3409
B(  9-C , 20-H ) :   0.9664 B( 10-C , 11-C ) :   1.3968 B( 10-C , 21-H ) :   0.9757
B( 11-C , 12-C ) :   1.3901 B( 11-C , 14-Cl) :   1.0111 B( 12-C , 13-O ) :   1.1239

Dispersion correction           -0.031784267
FINAL SINGLE POINT ENERGY     -1070.557654758567

DIPOLE MOMENT
-------------

Method             : SCF
Type of density    : Electron Density
Multiplicity       :   1
Irrep              :   0
Energy             : -1070.6100772081354080 Eh
Relativity type    :
Basis              : AO
                                X                 Y                 Z
Electronic contribution:     -9.170147611       6.345734793      -0.000682688
Nuclear contribution   :      9.469016418      -6.756391288       0.000824436
                        -----------------------------------------
Total Dipole Moment    :      0.298868807      -0.410656495       0.000141748
                        -----------------------------------------
Magnitude (a.u.)       :      0.507898947
Magnitude (Debye)      :      1.290976529

Rotational constants in cm-1:             0.036800             0.013267             0.009751
Rotational constants in MHz :          1103.229634           397.721787           292.333559

                             ****ORCA TERMINATED NORMALLY****
TOTAL RUN TIME: 0 days 0 hours 0 minutes 18 seconds 242 msec
