                         Program Version 6.0.0  -   RELEASE  -
|  1> ! r2scan-3c def2/J RI DEFGRID2 scfconv6 printgap
|  2> %output
|  3>     printlevel normal
|  4> end
|  5> * xyz 0 1
|  6> C -3.186698037 -0.3082329974 0.0002669904
|  7> O -2.0856289798 0.580847299 -0.0001833041
|  8> C -0.8244558748 0.0589143298 -0.0001897634
|  9> C -0.5253118295 -1.2994992305 -0.0002955416
| 10> C 0.7997948494 -1.7011034782 -0.0002085904
| 11> C 1.8297588186 -0.7813656033 1.17828e-05
| 12> C 1.5309025013 0.5784119382 0.0001383235
| 13> C 0.2077254725 0.9927194487 5.00763e-05
| 14> O 2.4961157469 1.5357688036 0.0002358792
| 15> H -3.1870018217 -0.9360081073 0.8950713731
| 16> H -3.1874262473 -0.9364799641 -0.8942235363
| 17> H -4.067874602 0.3293044521 0.0003033955
| 18> H -1.3042961339 -2.0433339177 -0.0004130637
| 19> H 1.0295290895 -2.7555671771 -0.0002940185
| 20> H 2.8566486139 -1.1138865324 9.3866e-05
| 21> H -0.0266133751 2.0445894263 0.0001567402
| 22> H 3.3763869308 1.1295494468 0.0011724857
| 23> *
| 24>
| 25>                          ****END OF INPUT****

CARTESIAN COORDINATES (ANGSTROEM)
---------------------------------
  C     -3.186698   -0.308233    0.000267
  O     -2.085629    0.580847   -0.000183
  C     -0.824456    0.058914   -0.000190
  C     -0.525312   -1.299499   -0.000296
  C      0.799795   -1.701103   -0.000209
  C      1.829759   -0.781366    0.000012
  C      1.530903    0.578412    0.000138
  C      0.207725    0.992719    0.000050
  O      2.496116    1.535769    0.000236
  H     -3.187002   -0.936008    0.895071
  H     -3.187426   -0.936480   -0.894224
  H     -4.067875    0.329304    0.000303
  H     -1.304296   -2.043334   -0.000413
  H      1.029529   -2.755567   -0.000294
  H      2.856649   -1.113887    0.000094
  H     -0.026613    2.044589    0.000157
  H      3.376387    1.129549    0.001172

 Total Charge           Charge          ....    0
 Multiplicity           Mult            ....    1
 Number of Electrons    NEL             ....   66
 Basis Dimension        Dim             ....  221

ORBITAL ENERGIES
----------------

  NO   OCC          E(Eh)            E(eV)
   0   2.0000     -18.984356      -516.5906
   1   2.0000     -18.984124      -516.5843
   2   2.0000     -10.096583      -274.7420
   3   2.0000     -10.095109      -274.7019
   4   2.0000     -10.085830      -274.4494
   5   2.0000     -10.038140      -273.1517
   6   2.0000     -10.027551      -272.8635
   7   2.0000     -10.026120      -272.8246
   8   2.0000     -10.022525      -272.7268
   9   2.0000      -1.031688       -28.0737
  10   2.0000      -1.028059       -27.9749
  11   2.0000      -0.818947       -22.2847
  12   2.0000      -0.728026       -19.8106
  13   2.0000      -0.709265       -19.3001
  14   2.0000      -0.666439       -18.1347
  15   2.0000      -0.583069       -15.8661
  16   2.0000      -0.579013       -15.7557
  17   2.0000      -0.520737       -14.1700
  18   2.0000      -0.472160       -12.8481
  19   2.0000      -0.459704       -12.5092
  20   2.0000      -0.451116       -12.2755
  21   2.0000      -0.437038       -11.8924
  22   2.0000      -0.404147       -10.9974
  23   2.0000      -0.389563       -10.6006
  24   2.0000      -0.381309       -10.3760
  25   2.0000      -0.362949        -9.8763
  26   2.0000      -0.344139        -9.3645
  27   2.0000      -0.331177        -9.0118
  28   2.0000      -0.324142        -8.8204
  29   2.0000      -0.296719        -8.0741
  30   2.0000      -0.283626        -7.7179
  31   2.0000      -0.211048        -5.7429
  32   2.0000      -0.199617        -5.4319
  33   0.0000      -0.026224        -0.7136
  34   0.0000      -0.006084        -0.1656
  35   0.0000       0.055989         1.5235
  36   0.0000       0.069256         1.8845
  37   0.0000       0.086374         2.3504

MULLIKEN ATOMIC CHARGES
-----------------------
   0 C :   -0.332051
   1 O :   -0.189741
   2 C :    0.376131
   3 C :   -0.311087
   4 C :   -0.137974
   5 C :   -0.354749
   6 C :    0.465648
   7 C :   -0.474269
   8 O :   -0.412847
   9 H :    0.152996
  10 H :    0.152966
  11 H :    0.154355
  12 H :    0.147823
  13 H :    0.146115
  14 H :    0.137348
  15 H :    0.167704
  16 H :    0.311631
Sum of atomic charges:   -0.0000000

LOEWDIN ATOMIC CHARGES
----------------------
   0 C :   -0.055661
   1 O :   -0.681077
   2 C :    0.198083
   3 C :   -0.199813
   4 C :   -0.142218
   5 C :   -0.197276
   6 C :    0.188631
   7 C :   -0.113665
   8 O :   -0.494672
   9 H :    0.164777
  10 H :    0.164766
  11 H :    0.180116
  12 H :    0.174037
  13 H :    0.168426
  14 H :    0.167563
  15 H :    0.192987
  16 H :    0.284995

  Mayer bond orders larger than 0.100000
B(  0-C ,  1-O ) :   0.8589 B(  0-C ,  9-H ) :   0.9640 B(  0-C , 10-H ) :   0.9640
B(  0-C , 11-H ) :   0.9679 B(  1-O ,  2-C ) :   1.0305 B(  2-C ,  3-C ) :   1.3675
B(  2-C ,  7-C ) :   1.3813 B(  3-C ,  4-C ) :   1.4218 B(  3-C , 12-H ) :   0.9252
B(  4-C ,  5-C ) :   1.4461 B(  4-C , 13-H ) :   0.9448 B(  5-C ,  6-C ) :   1.3125
B(  5-C , 14-H ) :   0.9344 B(  6-C ,  7-C ) :   1.3864 B(  6-C ,  8-O ) :   0.9032
B(  7-C ,  8-O ) :   0.1182 B(  7-C , 15-H ) :   0.9524 B(  8-O , 16-H ) :   0.8833

Dispersion correction           -0.005298583
FINAL SINGLE POINT ENERGY      -421.902670135163

DIPOLE MOMENT
-------------

Method             : SCF
Type of density    : Electron Density
Multiplicity       :   1
Irrep              :   0
Energy             :  -421.9054883798681885 Eh
Relativity type    :
Basis              : AO
                                X                 Y                 Z
Electronic contribution:      4.223845594       3.264954477      -0.001000655
Nuclear contribution   :     -4.225674994      -3.985733506       0.001752570
                        -----------------------------------------
Total Dipole Moment    :     -0.001829400      -0.720779029       0.000751915
                        -----------------------------------------
Magnitude (a.u.)       :      0.720781742
Magnitude (Debye)      :      1.832081591

Rotational constants in cm-1:             0.122467             0.037666             0.028966
Rotational constants in MHz :          3671.474835          1129.183916           868.372343

                             ****ORCA TERMINATED NORMALLY****
TOTAL RUN TIME: 0 days 0 hours 0 minutes 23 seconds 144 msec
