                         Program Version 6.0.0  -   RELEASE  -
|  1> ! r2scan-3c def2/J RI DEFGRID2 scfconv6 printgap
|  2> %output
|  3>     printlevel normal
|  4> end
|  5> %cpcm
|  6>     smd true
|  7>     smdsolvent "water"
|  8> end
|  9> * xyz 0 1
| 10> C -3.186698037 -0.3082329974 0.0002669904
| 11> O -2.0856289798 0.580847299 -0.0001833041
| 12> C -0.8244558748 0.0589143298 -0.0001897634
| 13> C -0.5253118295 -1.2994992305 -0.0002955416
| 14> C 0.7997948494 -1.7011034782 -0.0002085904
| 15> C 1.8297588186 -0.7813656033 1.17828e-05
| 16> C 1.5309025013 0.5784119382 0.0001383235
| 17> C 0.2077254725 0.9927194487 5.00763e-05
| 18> O 2.4961157469 1.5357688036 0.0002358792
| 19> H -3.1870018217 -0.9360081073 0.8950713731
| 20> H -3.1874262473 -0.9364799641 -0.8942235363
| 21> H -4.067874602 0.3293044521 0.0003033955
| 22> H -1.3042961339 -2.0433339177 -0.0004130637
| 23> H 1.0295290895 -2.7555671771 -0.0002940185
| 24> H 2.8566486139 -1.1138865324 9.3866e-05
| 25> H -0.0266133751 2.0445894263 0.0001567402
| 26> H 3.3763869308 1.1295494468 0.0011724857
| 27> *
| 28>
| 29>                          ****END OF INPUT****

CARTESIAN COORDINATES (ANGSTROEM)
---------------------------------
  C     -3.186698   -0.308233    0.000267
  O     -2.085629    0.580847   -0.000183
  C     -0.824456    0.058914   -0.000190
  C     -0.525312   -1.299499   -0.000296
  C      0.799795   -1.701103   -0.000209
  C      1.829759   -0.781366    0.000012
  C      1.530903    0.578412    0.000138
  C      0.207725    0.992719    0.000050
  O      2.496116    1.535769    0.000236
  H     -3.187002   -0.936008    0.895071
  H     -3.187426   -0.936480   -0.894224
  H     -4.067875    0.329304    0.000303
  H     -1.304296   -2.043334   -0.000413
  H      1.029529   -2.755567   -0.000294
  H      2.856649   -1.113887    0.000094
  H     -0.026613    2.044589    0.000157
  H      3.376387    1.129549    0.001172

 Total Charge           Charge          ....    0
 Multiplicity           Mult            ....    1
 Number of Electrons    NEL             ....   66
 Basis Dimension        Dim             ....  221

ORBITAL ENERGIES
----------------

  NO   OCC          E(Eh)            E(eV)
   0   2.0000     -18.988090      -516.6922
   1   2.0000     -18.983888      -516.5778
   2   2.0000     -10.099683      -274.8263
   3   2.0000     -10.099077      -274.8099
   4   2.0000     -10.072626      -274.0901
   5   2.0000     -10.037518      -273.1348
   6   2.0000     -10.027227      -272.8547
   7   2.0000     -10.026132      -272.8249
   8   2.0000     -10.025874      -272.8179
   9   2.0000      -1.034791       -28.1581
  10   2.0000      -1.027742       -27.9663
  11   2.0000      -0.821991       -22.3675
  12   2.0000      -0.728640       -19.8273
  13   2.0000      -0.710486       -19.3333
  14   2.0000      -0.661490       -18.0001
  15   2.0000      -0.581325       -15.8187
  16   2.0000      -0.578819       -15.7505
  17   2.0000      -0.517491       -14.0816
  18   2.0000      -0.470886       -12.8135
  19   2.0000      -0.457667       -12.4537
  20   2.0000      -0.449626       -12.2349
  21   2.0000      -0.432745       -11.7756
  22   2.0000      -0.403292       -10.9741
  23   2.0000      -0.387422       -10.5423
  24   2.0000      -0.385127       -10.4798
  25   2.0000      -0.361175        -9.8281
  26   2.0000      -0.340483        -9.2650
  27   2.0000      -0.331811        -9.0290
  28   2.0000      -0.325186        -8.8487
  29   2.0000      -0.297709        -8.1011
  30   2.0000      -0.286288        -7.7903
  31   2.0000      -0.217179        -5.9097
  32   2.0000      -0.203388        -5.5345
  33   0.0000      -0.030525        -0.8306
  34   0.0000      -0.010525        -0.2864
  35   0.0000       0.067549         1.8381
  36   0.0000       0.086427         2.3518
  37   0.0000       0.094321         2.5666

MULLIKEN ATOMIC CHARGES
-----------------------
   0 C :   -0.337324
   1 O :   -0.233004
   2 C :    0.349441
   3 C :   -0.317554
   4 C :   -0.174360
   5 C :   -0.357077
   6 C :    0.403935
   7 C :   -0.506821
   8 O :   -0.456933
   9 H :    0.171498
  10 H :    0.171483
  11 H :    0.173057
  12 H :    0.185512
  13 H :    0.181283
  14 H :    0.184911
  15 H :    0.190390
  16 H :    0.371562
Sum of atomic charges:    0.0000000

LOEWDIN ATOMIC CHARGES
----------------------
   0 C :   -0.051246
   1 O :   -0.709282
   2 C :    0.184877
   3 C :   -0.203313
   4 C :   -0.151783
   5 C :   -0.195070
   6 C :    0.177250
   7 C :   -0.136284
   8 O :   -0.510828
   9 H :    0.174351
  10 H :    0.174344
  11 H :    0.187264
  12 H :    0.187997
  13 H :    0.180741
  14 H :    0.185468
  15 H :    0.198244
  16 H :    0.307272

  Mayer bond orders larger than 0.100000
B(  0-C ,  1-O ) :   0.8512 B(  0-C ,  9-H ) :   0.9562 B(  0-C , 10-H ) :   0.9562
B(  0-C , 11-H ) :   0.9599 B(  1-O ,  2-C ) :   1.0127 B(  2-C ,  3-C ) :   1.3482
B(  2-C ,  7-C ) :   1.3570 B(  3-C ,  4-C ) :   1.3735 B(  3-C , 12-H ) :   0.9333
B(  4-C ,  5-C ) :   1.3896 B(  4-C , 13-H ) :   0.9621 B(  5-C ,  6-C ) :   1.3104
B(  5-C , 14-H ) :   0.9512 B(  6-C ,  7-C ) :   1.3624 B(  6-C ,  8-O ) :   0.9144
B(  7-C ,  8-O ) :   0.1105 B(  7-C , 15-H ) :   0.9485 B(  8-O , 16-H ) :   0.8512

Dispersion correction           -0.005298583
FINAL SINGLE POINT ENERGY      -421.913409646147

DIPOLE MOMENT
-------------

Method             : SCF
Type of density    : Electron Density
Multiplicity       :   1
Irrep              :   0
Energy             :  -421.9162278908525536 Eh
Relativity type    :
Basis              : AO
                                X                 Y                 Z
Electronic contribution:      4.339965412       2.856826593      -0.000715610
Nuclear contribution   :     -4.225674994      -3.985733506       0.001752570
                        -----------------------------------------
Total Dipole Moment    :      0.114290418      -1.128906912       0.001036960
                        -----------------------------------------
Magnitude (a.u.)       :      1.134678012
Magnitude (Debye)      :      2.884122302

Rotational constants in cm-1:             0.122467             0.037666             0.028966
Rotational constants in MHz :          3671.474835          1129.183916           868.372343

                             ****ORCA TERMINATED NORMALLY****
TOTAL RUN TIME: 0 days 0 hours 0 minutes 27 seconds 321 msec
