                         Program Version 6.0.0  -   RELEASE  -
|  1> ! r2scan-3c def2/J RI DEFGRID2 scfconv6 printgap
|  2> %output
|  3>     printlevel normal
|  4> end
|  5> * xyz 0 1
|  6> C -2.1263336996 -0.5079469896 0.7071066988
|  7> C -1.3445564676 -0.3594471589 -0.6018992755
|  8> C -0.0068499068 0.2674165312 -0.308580671
|  9> O 0.2270421846 1.4576213726 -0.3535456606
| 10> O 0.8860910874 -0.6462435547 0.049078674
| 11> C 2.2017311836 -0.2231829253 0.4192215101
| 12> H -3.1016409291 -0.9394097461 0.50378532
| 13> H -1.5902444074 -1.1569483778 1.3946545929
| 14> H -2.2635292899 0.4634798354 1.1761875789
| 15> H -1.8867264522 0.2886585371 -1.289293921
| 16> H -1.1848048207 -1.3384150328 -1.0511594419
| 17> H 2.8787232892 -0.4251319771 -0.4101051213
| 18> H 2.4854417895 -0.806394519 1.2916426379
| 19> H 2.1986834422 0.8437443219 0.645129708
| 20> *
| 21>
| 22>                          ****END OF INPUT****

CARTESIAN COORDINATES (ANGSTROEM)
---------------------------------
  C     -2.126334   -0.507947    0.707107
  C     -1.344556   -0.359447   -0.601899
  C     -0.006850    0.267417   -0.308581
  O      0.227042    1.457621   -0.353546
  O      0.886091   -0.646244    0.049079
  C      2.201731   -0.223183    0.419222
  H     -3.101641   -0.939410    0.503785
  H     -1.590244   -1.156948    1.394655
  H     -2.263529    0.463480    1.176188
  H     -1.886726    0.288659   -1.289294
  H     -1.184805   -1.338415   -1.051159
  H      2.878723   -0.425132   -0.410105
  H      2.485442   -0.806395    1.291643
  H      2.198683    0.843744    0.645130

 Total Charge           Charge          ....    0
 Multiplicity           Mult            ....    1
 Number of Electrons    NEL             ....   48
 Basis Dimension        Dim             ....  164

ORBITAL ENERGIES
----------------

  NO   OCC          E(Eh)            E(eV)
   0   2.0000     -18.999882      -517.0131
   1   2.0000     -18.928397      -515.0679
   2   2.0000     -10.152924      -276.2751
   3   2.0000     -10.085942      -274.4524
   4   2.0000     -10.044542      -273.3259
   5   2.0000     -10.032661      -273.0026
   6   2.0000      -1.073360       -29.2076
   7   2.0000      -0.976214       -26.5641
   8   2.0000      -0.762359       -20.7448
   9   2.0000      -0.696601       -18.9555
  10   2.0000      -0.613277       -16.6881
  11   2.0000      -0.534265       -14.5381
  12   2.0000      -0.470958       -12.8154
  13   2.0000      -0.451603       -12.2888
  14   2.0000      -0.448826       -12.2132
  15   2.0000      -0.409693       -11.1483
  16   2.0000      -0.402801       -10.9608
  17   2.0000      -0.379000       -10.3131
  18   2.0000      -0.350203        -9.5295
  19   2.0000      -0.333072        -9.0633
  20   2.0000      -0.328989        -8.9522
  21   2.0000      -0.315420        -8.5830
  22   2.0000      -0.272514        -7.4155
  23   2.0000      -0.235890        -6.4189
  24   0.0000      -0.014982        -0.4077
  25   0.0000       0.064664         1.7596
  26   0.0000       0.095512         2.5990
  27   0.0000       0.123094         3.3496
  28   0.0000       0.125764         3.4222

MULLIKEN ATOMIC CHARGES
-----------------------
   0 C :   -0.470543
   1 C :   -0.285399
   2 C :    0.420039
   3 O :   -0.434073
   4 O :   -0.196768
   5 C :   -0.298617
   6 H :    0.153674
   7 H :    0.155261
   8 H :    0.160306
   9 H :    0.161010
  10 H :    0.152091
  11 H :    0.149968
  12 H :    0.147859
  13 H :    0.185192
Sum of atomic charges:   -0.0000000

LOEWDIN ATOMIC CHARGES
----------------------
   0 C :   -0.391680
   1 C :   -0.235820
   2 C :    0.353902
   3 O :   -0.435234
   4 O :   -0.603043
   5 C :   -0.045633
   6 H :    0.153285
   7 H :    0.157409
   8 H :    0.159797
   9 H :    0.174676
  10 H :    0.174098
  11 H :    0.172681
  12 H :    0.174189
  13 H :    0.191372

  Mayer bond orders larger than 0.100000
B(  0-C ,  1-C ) :   0.8971 B(  0-C ,  6-H ) :   0.9703 B(  0-C ,  7-H ) :   0.9773
B(  0-C ,  8-H ) :   0.9744 B(  1-C ,  2-C ) :   0.9628 B(  1-C ,  9-H ) :   0.9720
B(  1-C , 10-H ) :   0.9700 B(  2-C ,  3-O ) :   1.8428 B(  2-C ,  4-O ) :   1.0457
B(  4-O ,  5-C ) :   0.8425 B(  5-C , 11-H ) :   0.9624 B(  5-C , 12-H ) :   0.9673
B(  5-C , 13-H ) :   0.9658

Dispersion correction           -0.002999699
FINAL SINGLE POINT ENERGY      -307.630342056850

DIPOLE MOMENT
-------------

Method             : SCF
Type of density    : Electron Density
Multiplicity       :   1
Irrep              :   0
Energy             :  -307.6367849733618414 Eh
Relativity type    :
Basis              : AO
                                X                 Y                 Z
Electronic contribution:      2.373753822       2.072310676      -1.918364940
Nuclear contribution   :     -2.295215735      -2.868530822       2.116538311
                        -----------------------------------------
Total Dipole Moment    :      0.078538087      -0.796220146       0.198173371
                        -----------------------------------------
Magnitude (a.u.)       :      0.824261753
Magnitude (Debye)      :      2.095106875

Rotational constants in cm-1:             0.222179             0.080546             0.068019
Rotational constants in MHz :          6660.759401          2414.706678          2039.169099

                             ****ORCA TERMINATED NORMALLY****
TOTAL RUN TIME: 0 days 0 hours 0 minutes 14 seconds 228 msec
