                         Program Version 6.0.0  -   RELEASE  -
|  1> ! r2scan-3c def2/J RI DEFGRID2 scfconv6 printgap
|  2> %output
|  3>     printlevel normal
|  4> end
|  5> %cpcm
|  6>     smd true
|  7>     smdsolvent "water"
|  8> end
|  9> * xyz 0 1
| 10> C -2.1263336996 -0.5079469896 0.7071066988
| 11> C -1.3445564676 -0.3594471589 -0.6018992755
| 12> C -0.0068499068 0.2674165312 -0.308580671
| 13> O 0.2270421846 1.4576213726 -0.3535456606
| 14> O 0.8860910874 -0.6462435547 0.049078674
| 15> C 2.2017311836 -0.2231829253 0.4192215101
| 16> H -3.1016409291 -0.9394097461 0.50378532
| 17> H -1.5902444074 -1.1569483778 1.3946545929
| 18> H -2.2635292899 0.4634798354 1.1761875789
| 19> H -1.8867264522 0.2886585371 -1.289293921
| 20> H -1.1848048207 -1.3384150328 -1.0511594419
| 21> H 2.8787232892 -0.4251319771 -0.4101051213
| 22> H 2.4854417895 -0.806394519 1.2916426379
| 23> H 2.1986834422 0.8437443219 0.645129708
| 24> *
| 25>
| 26>                          ****END OF INPUT****

CARTESIAN COORDINATES (ANGSTROEM)
---------------------------------
  C     -2.126334   -0.507947    0.707107
  C     -1.344556   -0.359447   -0.601899
  C     -0.006850    0.267417   -0.308581
  O      0.227042    1.457621   -0.353546
  O      0.886091   -0.646244    0.049079
  C      2.201731   -0.223183    0.419222
  H     -3.101641   -0.939410    0.503785
  H     -1.590244   -1.156948    1.394655
  H     -2.263529    0.463480    1.176188
  H     -1.886726    0.288659   -1.289294
  H     -1.184805   -1.338415   -1.051159
  H      2.878723   -0.425132   -0.410105
  H      2.485442   -0.806395    1.291643
  H      2.198683    0.843744    0.645130

 Total Charge           Charge          ....    0
 Multiplicity           Mult            ....    1
 Number of Electrons    NEL             ....   48
 Basis Dimension        Dim             ....  164

ORBITAL ENERGIES
----------------

  NO   OCC          E(Eh)            E(eV)
   0   2.0000     -19.004570      -517.1406
   1   2.0000     -18.943462      -515.4778
   2   2.0000     -10.162544      -276.5369
   3   2.0000     -10.075371      -274.1648
   4   2.0000     -10.037876      -273.1445
   5   2.0000     -10.022580      -272.7283
   6   2.0000      -1.079518       -29.3752
   7   2.0000      -0.989243       -26.9187
   8   2.0000      -0.757302       -20.6072
   9   2.0000      -0.690154       -18.7801
  10   2.0000      -0.605835       -16.4856
  11   2.0000      -0.531917       -14.4742
  12   2.0000      -0.470396       -12.8001
  13   2.0000      -0.457582       -12.4514
  14   2.0000      -0.450009       -12.2454
  15   2.0000      -0.409106       -11.1323
  16   2.0000      -0.396235       -10.7821
  17   2.0000      -0.376535       -10.2460
  18   2.0000      -0.344481        -9.3738
  19   2.0000      -0.329506        -8.9663
  20   2.0000      -0.320989        -8.7345
  21   2.0000      -0.316645        -8.6164
  22   2.0000      -0.278874        -7.5885
  23   2.0000      -0.251188        -6.8352
  24   0.0000      -0.022287        -0.6065
  25   0.0000       0.070315         1.9134
  26   0.0000       0.103753         2.8232
  27   0.0000       0.133059         3.6207
  28   0.0000       0.137380         3.7383

MULLIKEN ATOMIC CHARGES
-----------------------
   0 C :   -0.492202
   1 C :   -0.301742
   2 C :    0.454877
   3 O :   -0.519113
   4 O :   -0.211347
   5 C :   -0.316713
   6 H :    0.173048
   7 H :    0.166003
   8 H :    0.164997
   9 H :    0.173898
  10 H :    0.173800
  11 H :    0.177603
  12 H :    0.175154
  13 H :    0.181738
Sum of atomic charges:   -0.0000000

LOEWDIN ATOMIC CHARGES
----------------------
   0 C :   -0.393499
   1 C :   -0.233366
   2 C :    0.363032
   3 O :   -0.496902
   4 O :   -0.603812
   5 C :   -0.040610
   6 H :    0.160656
   7 H :    0.160840
   8 H :    0.160738
   9 H :    0.179681
  10 H :    0.183391
  11 H :    0.183252
  12 H :    0.186151
  13 H :    0.190448

  Mayer bond orders larger than 0.100000
B(  0-C ,  1-C ) :   0.8884 B(  0-C ,  6-H ) :   0.9653 B(  0-C ,  7-H ) :   0.9731
B(  0-C ,  8-H ) :   0.9716 B(  1-C ,  2-C ) :   0.9633 B(  1-C ,  9-H ) :   0.9675
B(  1-C , 10-H ) :   0.9610 B(  2-C ,  3-O ) :   1.7731 B(  2-C ,  4-O ) :   1.0728
B(  4-O ,  5-C ) :   0.8288 B(  5-C , 11-H ) :   0.9537 B(  5-C , 12-H ) :   0.9577
B(  5-C , 13-H ) :   0.9625

Dispersion correction           -0.002999699
FINAL SINGLE POINT ENERGY      -307.634964119031

DIPOLE MOMENT
-------------

Method             : SCF
Type of density    : Electron Density
Multiplicity       :   1
Irrep              :   0
Energy             :  -307.6414070355429544 Eh
Relativity type    :
Basis              : AO
                                X                 Y                 Z
Electronic contribution:      2.393792083       1.732895930      -1.865394040
Nuclear contribution   :     -2.295215735      -2.868530822       2.116538311
                        -----------------------------------------
Total Dipole Moment    :      0.098576348      -1.135634892       0.251144271
                        -----------------------------------------
Magnitude (a.u.)       :      1.167243483
Magnitude (Debye)      :      2.966897152

Rotational constants in cm-1:             0.222179             0.080546             0.068019
Rotational constants in MHz :          6660.759401          2414.706678          2039.169099

                             ****ORCA TERMINATED NORMALLY****
TOTAL RUN TIME: 0 days 0 hours 0 minutes 18 seconds 303 msec
