                         Program Version 6.0.0  -   RELEASE  -
|  1> ! r2scan-3c def2/J RI DEFGRID2 scfconv6 printgap
|  2> %output
|  3>     printlevel normal
|  4> end
|  5> * xyz 0 1
|  6> C 1.9938715051 -0.8003147148 -0.3601748357
|  7> O 1.1371950585 0.3362196125 -0.4086863669
|  8> S -0.3691384411 0.0530903688 0.0907646204
|  9> O -0.3186924643 -0.3460527187 1.4801593777
| 10> O -0.9663577757 -0.9202442838 -0.7970139687
| 11> C -1.0677265641 1.6727166925 -0.1195577568
| 12> H 2.043286235 -1.1693354564 0.6653627296
| 13> H 2.9694781494 -0.4657765089 -0.7028422027
| 14> H 1.5947441737 -1.5803108796 -1.010382292
| 15> H -0.2601064894 2.2979749499 -0.4729357089
| 16> H -1.8606065928 1.5956219955 -0.8500762971
| 17> H -1.4327883166 2.0007171211 0.8434148065
| 18> *
| 19>
| 20>                          ****END OF INPUT****

CARTESIAN COORDINATES (ANGSTROEM)
---------------------------------
  C      1.993872   -0.800315   -0.360175
  O      1.137195    0.336220   -0.408686
  S     -0.369138    0.053090    0.090765
  O     -0.318692   -0.346053    1.480159
  O     -0.966358   -0.920244   -0.797014
  C     -1.067727    1.672717   -0.119558
  H      2.043286   -1.169335    0.665363
  H      2.969478   -0.465777   -0.702842
  H      1.594744   -1.580311   -1.010382
  H     -0.260106    2.297975   -0.472936
  H     -1.860607    1.595622   -0.850076
  H     -1.432788    2.000717    0.843415

 Total Charge           Charge          ....    0
 Multiplicity           Mult            ....    1
 Number of Electrons    NEL             ....   58
 Basis Dimension        Dim             ....  167

ORBITAL ENERGIES
----------------

  NO   OCC          E(Eh)            E(eV)
   0   2.0000     -88.789575     -2416.0872
   1   2.0000     -19.007557      -517.2219
   2   2.0000     -18.945178      -515.5245
   3   2.0000     -18.945080      -515.5218
   4   2.0000     -10.097027      -274.7541
   5   2.0000     -10.085870      -274.4505
   6   2.0000      -8.057041      -219.2432
   7   2.0000      -6.004449      -163.3894
   8   2.0000      -6.000854      -163.2915
   9   2.0000      -6.000666      -163.2864
  10   2.0000      -1.114815       -30.3357
  11   2.0000      -1.014066       -27.5941
  12   2.0000      -0.972217       -26.4554
  13   2.0000      -0.772220       -21.0132
  14   2.0000      -0.692657       -18.8481
  15   2.0000      -0.578203       -15.7337
  16   2.0000      -0.512693       -13.9511
  17   2.0000      -0.479146       -13.0382
  18   2.0000      -0.462102       -12.5744
  19   2.0000      -0.439461       -11.9583
  20   2.0000      -0.433521       -11.7967
  21   2.0000      -0.410881       -11.1806
  22   2.0000      -0.404560       -11.0086
  23   2.0000      -0.370170       -10.0728
  24   2.0000      -0.310922        -8.4606
  25   2.0000      -0.310389        -8.4461
  26   2.0000      -0.295887        -8.0515
  27   2.0000      -0.283329        -7.7098
  28   2.0000      -0.255103        -6.9417
  29   0.0000       0.011468         0.3121
  30   0.0000       0.038888         1.0582
  31   0.0000       0.057475         1.5640
  32   0.0000       0.061928         1.6851
  33   0.0000       0.093760         2.5513

MULLIKEN ATOMIC CHARGES
-----------------------
   0 C :   -0.290561
   1 O :   -0.277075
   2 S :    1.090932
   3 O :   -0.546059
   4 O :   -0.545839
   5 C :   -0.537010
   6 H :    0.173362
   7 H :    0.156695
   8 H :    0.172623
   9 H :    0.200803
  10 H :    0.201214
  11 H :    0.200914
Sum of atomic charges:   -0.0000000

LOEWDIN ATOMIC CHARGES
----------------------
   0 C :   -0.052374
   1 O :   -0.641231
   2 S :    0.834957
   3 O :   -0.457979
   4 O :   -0.457474
   5 C :   -0.339616
   6 H :    0.178317
   7 H :    0.181427
   8 H :    0.177693
   9 H :    0.195850
  10 H :    0.190186
  11 H :    0.190243

  Mayer bond orders larger than 0.100000
B(  0-C ,  1-O ) :   0.8307 B(  0-C ,  6-H ) :   0.9585 B(  0-C ,  7-H ) :   0.9610
B(  0-C ,  8-H ) :   0.9584 B(  1-O ,  2-S ) :   0.9280 B(  2-S ,  3-O ) :   1.6909
B(  2-S ,  4-O ) :   1.6904 B(  2-S ,  5-C ) :   0.8764 B(  5-C ,  9-H ) :   0.9319
B(  5-C , 10-H ) :   0.9316 B(  5-C , 11-H ) :   0.9315

Dispersion correction           -0.003050715
FINAL SINGLE POINT ENERGY      -703.550487827096

DIPOLE MOMENT
-------------

Method             : SCF
Type of density    : Electron Density
Multiplicity       :   1
Irrep              :   0
Energy             :  -703.5672641170560837 Eh
Relativity type    :
Basis              : AO
                                X                 Y                 Z
Electronic contribution:     -2.369084313      -1.396817190       1.014583670
Nuclear contribution   :      2.873581647       2.497954227      -1.431555390
                        -----------------------------------------
Total Dipole Moment    :      0.504497334       1.101137038      -0.416971720
                        -----------------------------------------
Magnitude (a.u.)       :      1.280970629
Magnitude (Debye)      :      3.255968582

Rotational constants in cm-1:             0.152207             0.087561             0.083501
Rotational constants in MHz :          4563.057191          2625.025125          2503.304808

                             ****ORCA TERMINATED NORMALLY****
TOTAL RUN TIME: 0 days 0 hours 0 minutes 15 seconds 249 msec
