                         Program Version 6.0.0  -   RELEASE  -
|  1> ! r2scan-3c def2/J RI DEFGRID2 scfconv6 printgap
|  2> %output
|  3>     printlevel normal
|  4> end
|  5> %cpcm
|  6>     smd true
|  7>     smdsolvent "water"
|  8> end
|  9> * xyz 0 1
| 10> C 1.9938715051 -0.8003147148 -0.3601748357
| 11> O 1.1371950585 0.3362196125 -0.4086863669
| 12> S -0.3691384411 0.0530903688 0.0907646204
| 13> O -0.3186924643 -0.3460527187 1.4801593777
| 14> O -0.9663577757 -0.9202442838 -0.7970139687
| 15> C -1.0677265641 1.6727166925 -0.1195577568
| 16> H 2.043286235 -1.1693354564 0.6653627296
| 17> H 2.9694781494 -0.4657765089 -0.7028422027
| 18> H 1.5947441737 -1.5803108796 -1.010382292
| 19> H -0.2601064894 2.2979749499 -0.4729357089
| 20> H -1.8606065928 1.5956219955 -0.8500762971
| 21> H -1.4327883166 2.0007171211 0.8434148065
| 22> *
| 23>
| 24>                          ****END OF INPUT****

CARTESIAN COORDINATES (ANGSTROEM)
---------------------------------
  C      1.993872   -0.800315   -0.360175
  O      1.137195    0.336220   -0.408686
  S     -0.369138    0.053090    0.090765
  O     -0.318692   -0.346053    1.480159
  O     -0.966358   -0.920244   -0.797014
  C     -1.067727    1.672717   -0.119558
  H      2.043286   -1.169335    0.665363
  H      2.969478   -0.465777   -0.702842
  H      1.594744   -1.580311   -1.010382
  H     -0.260106    2.297975   -0.472936
  H     -1.860607    1.595622   -0.850076
  H     -1.432788    2.000717    0.843415

 Total Charge           Charge          ....    0
 Multiplicity           Mult            ....    1
 Number of Electrons    NEL             ....   58
 Basis Dimension        Dim             ....  167

ORBITAL ENERGIES
----------------

  NO   OCC          E(Eh)            E(eV)
   0   2.0000     -88.798666     -2416.3345
   1   2.0000     -19.010065      -517.2902
   2   2.0000     -18.960354      -515.9375
   3   2.0000     -18.960280      -515.9354
   4   2.0000     -10.084382      -274.4100
   5   2.0000     -10.068098      -273.9669
   6   2.0000      -8.066235      -219.4934
   7   2.0000      -6.013565      -163.6374
   8   2.0000      -6.010635      -163.5577
   9   2.0000      -6.009337      -163.5224
  10   2.0000      -1.124646       -30.6032
  11   2.0000      -1.020324       -27.7644
  12   2.0000      -0.988801       -26.9067
  13   2.0000      -0.763841       -20.7852
  14   2.0000      -0.682300       -18.5663
  15   2.0000      -0.576247       -15.6805
  16   2.0000      -0.512689       -13.9510
  17   2.0000      -0.482744       -13.1361
  18   2.0000      -0.467343       -12.7171
  19   2.0000      -0.430443       -11.7130
  20   2.0000      -0.427330       -11.6282
  21   2.0000      -0.403978       -10.9928
  22   2.0000      -0.395708       -10.7678
  23   2.0000      -0.372146       -10.1266
  24   2.0000      -0.320862        -8.7311
  25   2.0000      -0.317274        -8.6335
  26   2.0000      -0.304352        -8.2818
  27   2.0000      -0.297740        -8.1019
  28   2.0000      -0.267796        -7.2871
  29   0.0000       0.012842         0.3494
  30   0.0000       0.041997         1.1428
  31   0.0000       0.058883         1.6023
  32   0.0000       0.064121         1.7448
  33   0.0000       0.097495         2.6530

MULLIKEN ATOMIC CHARGES
-----------------------
   0 C :   -0.301073
   1 O :   -0.297430
   2 S :    1.091379
   3 O :   -0.601849
   4 O :   -0.601589
   5 C :   -0.522598
   6 H :    0.180784
   7 H :    0.190006
   8 H :    0.180684
   9 H :    0.230993
  10 H :    0.225531
  11 H :    0.225163
Sum of atomic charges:    0.0000000

LOEWDIN ATOMIC CHARGES
----------------------
   0 C :   -0.048310
   1 O :   -0.642963
   2 S :    0.842542
   3 O :   -0.503715
   4 O :   -0.503323
   5 C :   -0.318019
   6 H :    0.181255
   7 H :    0.195995
   8 H :    0.180852
   9 H :    0.209992
  10 H :    0.202855
  11 H :    0.202838

  Mayer bond orders larger than 0.100000
B(  0-C ,  1-O ) :   0.8197 B(  0-C ,  6-H ) :   0.9523 B(  0-C ,  7-H ) :   0.9492
B(  0-C ,  8-H ) :   0.9523 B(  1-O ,  2-S ) :   0.9482 B(  2-S ,  3-O ) :   1.6350
B(  2-S ,  4-O ) :   1.6348 B(  2-S ,  5-C ) :   0.9220 B(  5-C ,  9-H ) :   0.9129
B(  5-C , 10-H ) :   0.9126 B(  5-C , 11-H ) :   0.9123

Dispersion correction           -0.003050715
FINAL SINGLE POINT ENERGY      -703.564777627900

DIPOLE MOMENT
-------------

Method             : SCF
Type of density    : Electron Density
Multiplicity       :   1
Irrep              :   0
Energy             :  -703.5815539178601057 Eh
Relativity type    :
Basis              : AO
                                X                 Y                 Z
Electronic contribution:     -2.220597278      -0.966864837       0.864930996
Nuclear contribution   :      2.873581647       2.497954227      -1.431555390
                        -----------------------------------------
Total Dipole Moment    :      0.652984369       1.531089390      -0.566624394
                        -----------------------------------------
Magnitude (a.u.)       :      1.758319229
Magnitude (Debye)      :      4.469292299

Rotational constants in cm-1:             0.152207             0.087561             0.083501
Rotational constants in MHz :          4563.057191          2625.025125          2503.304808

                             ****ORCA TERMINATED NORMALLY****
TOTAL RUN TIME: 0 days 0 hours 0 minutes 18 seconds 634 msec
