                         Program Version 6.0.0  -   RELEASE  -
|  1> ! r2scan-3c def2/J RI DEFGRID2 scfconv6 printgap
|  2> %output
|  3>     printlevel normal
|  4> end
|  5> * xyz 0 1
|  6> C -2.5513152381 -0.9112167554 0.3031823741
|  7> C -1.1189539141 -0.4563392866 0.6269357403
|  8> H -0.9820135352 -0.4303347605 1.7202155279
|  9> C -0.8371065769 0.9405507309 0.0476201193
| 10> H -1.0928002551 0.9372232724 -1.0178497583
| 11> C 0.6492459218 1.2888840996 0.2134688603
| 12> H 0.8704173976 1.4132818492 1.2885558273
| 13> C 1.5425052256 0.1643193494 -0.323879445
| 14> H 1.3984687272 0.0960714227 -1.4135902671
| 15> C 1.1249803818 -1.1717032357 0.3182607856
| 16> H 1.3083824779 -1.1161209934 1.4035043032
| 17> O -0.2438411245 -1.4172190034 0.063844105
| 18> O 1.8472165616 -2.250139273 -0.1304921902
| 19> O 2.8919290043 0.3907682217 -0.0163793464
| 20> O 0.9834409532 2.4699905429 -0.4769446339
| 21> O -1.6451945793 1.933731477 0.6249747988
| 22> O -2.7502523618 -1.0897529435 -1.0731454334
| 23> H -3.2504641857 -0.1338088989 0.6160180146
| 24> H -2.7600245624 -1.8380024052 0.8501363384
| 25> H 1.7456951774 -2.3492245658 -1.0905234439
| 26> H 3.1358696339 1.2690482979 -0.3480999633
| 27> H 0.278967829 3.1215159073 -0.3390898601
| 28> H -1.5226394538 1.9440840639 1.5862186865
| 29> H -2.1373974911 -1.7731241899 -1.3807304225
| 30> *
| 31>
| 32>                          ****END OF INPUT****

CARTESIAN COORDINATES (ANGSTROEM)
---------------------------------
  C     -2.551315   -0.911217    0.303182
  C     -1.118954   -0.456339    0.626936
  H     -0.982014   -0.430335    1.720216
  C     -0.837107    0.940551    0.047620
  H     -1.092800    0.937223   -1.017850
  C      0.649246    1.288884    0.213469
  H      0.870417    1.413282    1.288556
  C      1.542505    0.164319   -0.323879
  H      1.398469    0.096071   -1.413590
  C      1.124980   -1.171703    0.318261
  H      1.308382   -1.116121    1.403504
  O     -0.243841   -1.417219    0.063844
  O      1.847217   -2.250139   -0.130492
  O      2.891929    0.390768   -0.016379
  O      0.983441    2.469991   -0.476945
  O     -1.645195    1.933731    0.624975
  O     -2.750252   -1.089753   -1.073145
  H     -3.250464   -0.133809    0.616018
  H     -2.760025   -1.838002    0.850136
  H      1.745695   -2.349225   -1.090523
  H      3.135870    1.269048   -0.348100
  H      0.278968    3.121516   -0.339090
  H     -1.522639    1.944084    1.586219
  H     -2.137397   -1.773124   -1.380730

 Total Charge           Charge          ....    0
 Multiplicity           Mult            ....    1
 Number of Electrons    NEL             ....   96
 Basis Dimension        Dim             ....  318

ORBITAL ENERGIES
----------------

  NO   OCC          E(Eh)            E(eV)
   0   2.0000     -18.978753      -516.4381
   1   2.0000     -18.978741      -516.4378
   2   2.0000     -18.969645      -516.1903
   3   2.0000     -18.966193      -516.0964
   4   2.0000     -18.958817      -515.8957
   5   2.0000     -18.956008      -515.8192
   6   2.0000     -10.145035      -276.0604
   7   2.0000     -10.102691      -274.9082
   8   2.0000     -10.097527      -274.7677
   9   2.0000     -10.097348      -274.7628
  10   2.0000     -10.095132      -274.7025
  11   2.0000     -10.086184      -274.4590
  12   2.0000      -1.057292       -28.7704
  13   2.0000      -1.024776       -27.8856
  14   2.0000      -1.009398       -27.4671
  15   2.0000      -0.999172       -27.1888
  16   2.0000      -0.989927       -26.9373
  17   2.0000      -0.983546       -26.7636
  18   2.0000      -0.756372       -20.5819
  19   2.0000      -0.741709       -20.1829
  20   2.0000      -0.664210       -18.0741
  21   2.0000      -0.627196       -17.0669
  22   2.0000      -0.598387       -16.2829
  23   2.0000      -0.580720       -15.8022
  24   2.0000      -0.530500       -14.4356
  25   2.0000      -0.515466       -14.0265
  26   2.0000      -0.498008       -13.5515
  27   2.0000      -0.485825       -13.2200
  28   2.0000      -0.473791       -12.8925
  29   2.0000      -0.457269       -12.4429
  30   2.0000      -0.447017       -12.1639
  31   2.0000      -0.439492       -11.9592
  32   2.0000      -0.409188       -11.1346
  33   2.0000      -0.400877       -10.9084
  34   2.0000      -0.390993       -10.6395
  35   2.0000      -0.378127       -10.2894
  36   2.0000      -0.354806        -9.6548
  37   2.0000      -0.344706        -9.3799
  38   2.0000      -0.332800        -9.0560
  39   2.0000      -0.324307        -8.8248
  40   2.0000      -0.312728        -8.5098
  41   2.0000      -0.305285        -8.3072
  42   2.0000      -0.287379        -7.8200
  43   2.0000      -0.267566        -7.2808
  44   2.0000      -0.260856        -7.0982
  45   2.0000      -0.250961        -6.8290
  46   2.0000      -0.244559        -6.6548
  47   2.0000      -0.231066        -6.2876
  48   0.0000       0.024635         0.6704
  49   0.0000       0.038575         1.0497
  50   0.0000       0.057448         1.5632
  51   0.0000       0.070627         1.9218
  52   0.0000       0.075368         2.0509

MULLIKEN ATOMIC CHARGES
-----------------------
   0 C :   -0.223860
   1 C :    0.055214
   2 H :    0.165134
   3 C :   -0.193664
   4 H :    0.201098
   5 C :    0.026713
   6 H :    0.162006
   7 C :    0.082350
   8 H :    0.161211
   9 C :   -0.183626
  10 H :    0.152795
  11 O :   -0.208565
  12 O :   -0.346914
  13 O :   -0.417015
  14 O :   -0.436765
  15 O :   -0.417965
  16 O :   -0.422368
  17 H :    0.149884
  18 H :    0.143327
  19 H :    0.311064
  20 H :    0.316455
  21 H :    0.312663
  22 H :    0.301717
  23 H :    0.309111
Sum of atomic charges:   -0.0000000

LOEWDIN ATOMIC CHARGES
----------------------
   0 C :    0.041328
   1 C :    0.101558
   2 H :    0.179454
   3 C :    0.095767
   4 H :    0.210300
   5 C :    0.097068
   6 H :    0.178518
   7 C :    0.116917
   8 H :    0.182134
   9 C :    0.300644
  10 H :    0.199083
  11 O :   -0.686209
  12 O :   -0.462429
  13 O :   -0.557289
  14 O :   -0.582926
  15 O :   -0.579518
  16 O :   -0.587527
  17 H :    0.192581
  18 H :    0.166421
  19 H :    0.279784
  20 H :    0.284099
  21 H :    0.283066
  22 H :    0.272447
  23 H :    0.274730

  Mayer bond orders larger than 0.100000
B(  0-C ,  1-C ) :   0.9514 B(  0-C , 16-O ) :   1.0386 B(  0-C , 17-H ) :   0.9619
B(  0-C , 18-H ) :   0.9812 B(  1-C ,  2-H ) :   0.9182 B(  1-C ,  3-C ) :   0.8495
B(  1-C , 11-O ) :   0.7576 B(  1-C , 16-O ) :  -0.1279 B(  3-C ,  4-H ) :   0.9718
B(  3-C ,  5-C ) :   0.8461 B(  3-C , 15-O ) :   0.9864 B(  5-C ,  6-H ) :   0.9750
B(  5-C ,  7-C ) :   0.8743 B(  5-C , 14-O ) :   0.8974 B(  7-C ,  8-H ) :   0.9498
B(  7-C ,  9-C ) :   0.8409 B(  7-C , 13-O ) :   0.8943 B(  9-C , 10-H ) :   1.0077
B(  9-C , 11-O ) :   0.9340 B(  9-C , 12-O ) :   1.1510 B( 12-O , 19-H ) :   0.8762
B( 13-O , 20-H ) :   0.8780 B( 14-O , 21-H ) :   0.8725 B( 15-O , 22-H ) :   0.8836
B( 16-O , 23-H ) :   0.8777

Dispersion correction           -0.008080559
FINAL SINGLE POINT ENERGY      -687.075531332588

DIPOLE MOMENT
-------------

Method             : SCF
Type of density    : Electron Density
Multiplicity       :   1
Irrep              :   0
Energy             :  -687.0868270703052758 Eh
Relativity type    :
Basis              : AO
                                X                 Y                 Z
Electronic contribution:      2.549503184      -0.660443597      -1.307841370
Nuclear contribution   :     -2.805533990       1.070639031       1.743913364
                        -----------------------------------------
Total Dipole Moment    :     -0.256030806       0.410195434       0.436071994
                        -----------------------------------------
Magnitude (a.u.)       :      0.651130442
Magnitude (Debye)      :      1.655042054

Rotational constants in cm-1:             0.038721             0.027177             0.017758
Rotational constants in MHz :          1160.819922           814.759139           532.375902

                             ****ORCA TERMINATED NORMALLY****
TOTAL RUN TIME: 0 days 0 hours 0 minutes 48 seconds 603 msec
