                         Program Version 6.0.0  -   RELEASE  -
|  1> ! r2scan-3c def2/J RI DEFGRID2 scfconv6 printgap
|  2> %output
|  3>     printlevel normal
|  4> end
|  5> %cpcm
|  6>     smd true
|  7>     smdsolvent "water"
|  8> end
|  9> * xyz 0 1
| 10> C -2.5513152381 -0.9112167554 0.3031823741
| 11> C -1.1189539141 -0.4563392866 0.6269357403
| 12> H -0.9820135352 -0.4303347605 1.7202155279
| 13> C -0.8371065769 0.9405507309 0.0476201193
| 14> H -1.0928002551 0.9372232724 -1.0178497583
| 15> C 0.6492459218 1.2888840996 0.2134688603
| 16> H 0.8704173976 1.4132818492 1.2885558273
| 17> C 1.5425052256 0.1643193494 -0.323879445
| 18> H 1.3984687272 0.0960714227 -1.4135902671
| 19> C 1.1249803818 -1.1717032357 0.3182607856
| 20> H 1.3083824779 -1.1161209934 1.4035043032
| 21> O -0.2438411245 -1.4172190034 0.063844105
| 22> O 1.8472165616 -2.250139273 -0.1304921902
| 23> O 2.8919290043 0.3907682217 -0.0163793464
| 24> O 0.9834409532 2.4699905429 -0.4769446339
| 25> O -1.6451945793 1.933731477 0.6249747988
| 26> O -2.7502523618 -1.0897529435 -1.0731454334
| 27> H -3.2504641857 -0.1338088989 0.6160180146
| 28> H -2.7600245624 -1.8380024052 0.8501363384
| 29> H 1.7456951774 -2.3492245658 -1.0905234439
| 30> H 3.1358696339 1.2690482979 -0.3480999633
| 31> H 0.278967829 3.1215159073 -0.3390898601
| 32> H -1.5226394538 1.9440840639 1.5862186865
| 33> H -2.1373974911 -1.7731241899 -1.3807304225
| 34> *
| 35>
| 36>                          ****END OF INPUT****

CARTESIAN COORDINATES (ANGSTROEM)
---------------------------------
  C     -2.551315   -0.911217    0.303182
  C     -1.118954   -0.456339    0.626936
  H     -0.982014   -0.430335    1.720216
  C     -0.837107    0.940551    0.047620
  H     -1.092800    0.937223   -1.017850
  C      0.649246    1.288884    0.213469
  H      0.870417    1.413282    1.288556
  C      1.542505    0.164319   -0.323879
  H      1.398469    0.096071   -1.413590
  C      1.124980   -1.171703    0.318261
  H      1.308382   -1.116121    1.403504
  O     -0.243841   -1.417219    0.063844
  O      1.847217   -2.250139   -0.130492
  O      2.891929    0.390768   -0.016379
  O      0.983441    2.469991   -0.476945
  O     -1.645195    1.933731    0.624975
  O     -2.750252   -1.089753   -1.073145
  H     -3.250464   -0.133809    0.616018
  H     -2.760025   -1.838002    0.850136
  H      1.745695   -2.349225   -1.090523
  H      3.135870    1.269048   -0.348100
  H      0.278968    3.121516   -0.339090
  H     -1.522639    1.944084    1.586219
  H     -2.137397   -1.773124   -1.380730

 Total Charge           Charge          ....    0
 Multiplicity           Mult            ....    1
 Number of Electrons    NEL             ....   96
 Basis Dimension        Dim             ....  318

ORBITAL ENERGIES
----------------

  NO   OCC          E(Eh)            E(eV)
   0   2.0000     -18.973397      -516.2924
   1   2.0000     -18.970714      -516.2194
   2   2.0000     -18.963429      -516.0211
   3   2.0000     -18.961272      -515.9624
   4   2.0000     -18.959114      -515.9037
   5   2.0000     -18.956505      -515.8327
   6   2.0000     -10.138476      -275.8820
   7   2.0000     -10.087933      -274.5066
   8   2.0000     -10.086902      -274.4786
   9   2.0000     -10.085184      -274.4318
  10   2.0000     -10.084787      -274.4210
  11   2.0000     -10.076110      -274.1849
  12   2.0000      -1.053550       -28.6686
  13   2.0000      -1.013763       -27.5859
  14   2.0000      -1.005690       -27.3662
  15   2.0000      -0.995863       -27.0988
  16   2.0000      -0.984778       -26.7972
  17   2.0000      -0.981677       -26.7128
  18   2.0000      -0.744982       -20.2720
  19   2.0000      -0.732843       -19.9417
  20   2.0000      -0.655357       -17.8332
  21   2.0000      -0.617836       -16.8122
  22   2.0000      -0.590619       -16.0715
  23   2.0000      -0.569303       -15.4915
  24   2.0000      -0.521824       -14.1996
  25   2.0000      -0.506819       -13.7913
  26   2.0000      -0.487322       -13.2607
  27   2.0000      -0.478375       -13.0172
  28   2.0000      -0.466317       -12.6891
  29   2.0000      -0.448674       -12.2090
  30   2.0000      -0.437833       -11.9141
  31   2.0000      -0.434679       -11.8282
  32   2.0000      -0.401813       -10.9339
  33   2.0000      -0.396400       -10.7866
  34   2.0000      -0.383288       -10.4298
  35   2.0000      -0.371192       -10.1007
  36   2.0000      -0.354639        -9.6502
  37   2.0000      -0.343273        -9.3409
  38   2.0000      -0.327890        -8.9223
  39   2.0000      -0.319846        -8.7034
  40   2.0000      -0.310842        -8.4584
  41   2.0000      -0.302068        -8.2197
  42   2.0000      -0.284047        -7.7293
  43   2.0000      -0.266263        -7.2454
  44   2.0000      -0.253534        -6.8990
  45   2.0000      -0.250198        -6.8082
  46   2.0000      -0.243540        -6.6271
  47   2.0000      -0.224354        -6.1050
  48   0.0000       0.041574         1.1313
  49   0.0000       0.062952         1.7130
  50   0.0000       0.071630         1.9492
  51   0.0000       0.087632         2.3846
  52   0.0000       0.097581         2.6553

MULLIKEN ATOMIC CHARGES
-----------------------
   0 C :   -0.240829
   1 C :    0.058571
   2 H :    0.197293
   3 C :   -0.156268
   4 H :    0.199655
   5 C :    0.018031
   6 H :    0.184166
   7 C :    0.059673
   8 H :    0.184668
   9 C :   -0.141594
  10 H :    0.177031
  11 O :   -0.255265
  12 O :   -0.429444
  13 O :   -0.490274
  14 O :   -0.497855
  15 O :   -0.479513
  16 O :   -0.493692
  17 H :    0.164463
  18 H :    0.159401
  19 H :    0.368573
  20 H :    0.355025
  21 H :    0.348962
  22 H :    0.357746
  23 H :    0.351476
Sum of atomic charges:   -0.0000000

LOEWDIN ATOMIC CHARGES
----------------------
   0 C :    0.040488
   1 C :    0.111608
   2 H :    0.197931
   3 C :    0.099604
   4 H :    0.207748
   5 C :    0.103066
   6 H :    0.191395
   7 C :    0.117603
   8 H :    0.192957
   9 C :    0.298142
  10 H :    0.208066
  11 O :   -0.699101
  12 O :   -0.496913
  13 O :   -0.591210
  14 O :   -0.605699
  15 O :   -0.595057
  16 O :   -0.624200
  17 H :    0.196287
  18 H :    0.174471
  19 H :    0.299242
  20 H :    0.297360
  21 H :    0.294859
  22 H :    0.293290
  23 H :    0.288064

  Mayer bond orders larger than 0.100000
B(  0-C ,  1-C ) :   0.9446 B(  0-C , 16-O ) :   1.0107 B(  0-C , 17-H ) :   0.9641
B(  0-C , 18-H ) :   0.9708 B(  1-C ,  2-H ) :   0.9098 B(  1-C ,  3-C ) :   0.8559
B(  1-C , 11-O ) :   0.7633 B(  1-C , 16-O ) :  -0.1115 B(  3-C ,  4-H ) :   0.9785
B(  3-C ,  5-C ) :   0.8685 B(  3-C , 15-O ) :   0.9715 B(  5-C ,  6-H ) :   0.9627
B(  5-C ,  7-C ) :   0.8983 B(  5-C , 14-O ) :   0.8872 B(  7-C ,  8-H ) :   0.9455
B(  7-C ,  9-C ) :   0.8523 B(  7-C , 13-O ) :   0.8738 B(  9-C , 10-H ) :   0.9956
B(  9-C , 11-O ) :   0.9440 B(  9-C , 12-O ) :   1.1257 B( 12-O , 19-H ) :   0.8468
B( 13-O , 20-H ) :   0.8592 B( 14-O , 21-H ) :   0.8561 B( 15-O , 22-H ) :   0.8570
B( 16-O , 23-H ) :   0.8565

Dispersion correction           -0.008080559
FINAL SINGLE POINT ENERGY      -687.112127117600

DIPOLE MOMENT
-------------

Method             : SCF
Type of density    : Electron Density
Multiplicity       :   1
Irrep              :   0
Energy             :  -687.1234228553171306 Eh
Relativity type    :
Basis              : AO
                                X                 Y                 Z
Electronic contribution:      2.420825520      -0.483241730      -0.981028665
Nuclear contribution   :     -2.805533990       1.070639031       1.743913364
                        -----------------------------------------
Total Dipole Moment    :     -0.384708470       0.587397301       0.762884699
                        -----------------------------------------
Magnitude (a.u.)       :      1.036836178
Magnitude (Debye)      :      2.635428123

Rotational constants in cm-1:             0.038721             0.027177             0.017758
Rotational constants in MHz :          1160.819922           814.759139           532.375902

                             ****ORCA TERMINATED NORMALLY****
TOTAL RUN TIME: 0 days 0 hours 0 minutes 57 seconds 913 msec
