                         Program Version 6.0.0  -   RELEASE  -
|  1> ! wb97x-v def2-tzvp def2/J RIJCOSX DEFGRID2 scfconv7 GCP(DFT/TZ) printgap
|  2> %output
|  3>     printlevel normal
|  4> end
|  5> * xyz 0 1
|  6> C -3.5779012162255555 0.3722551981234959 -0.25455999792059564
|  7> O -2.186330560853836 0.45958037108718663 -0.6545543032079246
|  8> C -1.3142293856050218 -0.25037992354489413 0.09121238091743607
|  9> O -1.6635653413194376 -0.9504134717150634 1.0284926069768905
| 10> C 0.10750014555591403 -0.026375647876876598 -0.3429984166439704
| 11> C 0.9583017970060833 -1.2889126733950347 -0.17240959982081322
| 12> C 2.4072972371690273 -1.0192461787620206 -0.5795556808089073
| 13> C 3.0004771826723604 0.13907363196925596 0.22462568391568913
| 14> C 2.146580151281348 1.4003129251673372 0.08498101217868452
| 15> C 0.6943544583201786 1.1385097259492816 0.48563656387192716
| 16> H -3.7019915921714865 0.7474185911293102 0.7643873995571036
| 17> H -3.9256823749127943 -0.6617929305214969 -0.31881476753756455
| 18> H -4.12142088008935 0.9999427401970897 -0.959827352757307
| 19> H 0.0994770420442574 0.2747388038259813 -1.3971417871067051
| 20> H 0.924815548031778 -1.6001438464424516 0.8791365536478501
| 21> H 0.5351720557981877 -2.1054352982117512 -0.7687231065007671
| 22> H 3.004875572713614 -1.9267254617426908 -0.43741278869435646
| 23> H 2.4444250960795726 -0.7756539224139126 -1.6502732426075808
| 24> H 3.05083563070463 -0.14675825597276956 1.2843878109789435
| 25> H 4.026663004568104 0.3412235805011841 -0.10293977350912756
| 26> H 2.554905088557625 2.2085662991763404 0.7023884073907677
| 27> H 2.174483552908933 1.745451029819442 -0.9574506565590197
| 28> H 0.6445112494338165 0.8706841052466564 1.549542975753889
| 29> H 0.08780380493050598 2.039645188863684 0.3424448524898861
| 30> *
| 31>
| 32>                          ****END OF INPUT****

CARTESIAN COORDINATES (ANGSTROEM)
---------------------------------
  C     -3.577901    0.372255   -0.254560
  O     -2.186331    0.459580   -0.654554
  C     -1.314229   -0.250380    0.091212
  O     -1.663565   -0.950413    1.028493
  C      0.107500   -0.026376   -0.342998
  C      0.958302   -1.288913   -0.172410
  C      2.407297   -1.019246   -0.579556
  C      3.000477    0.139074    0.224626
  C      2.146580    1.400313    0.084981
  C      0.694354    1.138510    0.485637
  H     -3.701992    0.747419    0.764387
  H     -3.925682   -0.661793   -0.318815
  H     -4.121421    0.999943   -0.959827
  H      0.099477    0.274739   -1.397142
  H      0.924816   -1.600144    0.879137
  H      0.535172   -2.105435   -0.768723
  H      3.004876   -1.926725   -0.437413
  H      2.444425   -0.775654   -1.650273
  H      3.050836   -0.146758    1.284388
  H      4.026663    0.341224   -0.102940
  H      2.554905    2.208566    0.702388
  H      2.174484    1.745451   -0.957451
  H      0.644511    0.870684    1.549543
  H      0.087804    2.039645    0.342445

 Total Charge           Charge          ....    0
 Multiplicity           Mult            ....    1
 Number of Electrons    NEL             ....   78
 Basis Dimension        Dim             ....  394

ORBITAL ENERGIES
----------------

  NO   OCC          E(Eh)            E(eV)
   0   2.0000     -21.717475      -590.9625
   1   2.0000     -21.652706      -589.2001
   2   2.0000     -12.170845      -331.1855
   3   2.0000     -12.101564      -329.3003
   4   2.0000     -12.060416      -328.1806
   5   2.0000     -12.049538      -327.8846
   6   2.0000     -12.043821      -327.7290
   7   2.0000     -12.042264      -327.6866
   8   2.0000     -12.041388      -327.6628
   9   2.0000     -12.040332      -327.6341
  10   2.0000      -1.754525       -47.7431
  11   2.0000      -1.687661       -45.9236
  12   2.0000      -1.354044       -36.8454
  13   2.0000      -1.295624       -35.2557
  14   2.0000      -1.253462       -34.1084
  15   2.0000      -1.249433       -33.9988
  16   2.0000      -1.141484       -31.0614
  17   2.0000      -1.104847       -30.0644
  18   2.0000      -1.101166       -29.9643
  19   2.0000      -1.058334       -28.7987
  20   2.0000      -1.028239       -27.9798
  21   2.0000      -0.996744       -27.1228
  22   2.0000      -0.991613       -26.9832
  23   2.0000      -0.947226       -25.7753
  24   2.0000      -0.908781       -24.7292
  25   2.0000      -0.897695       -24.4275
  26   2.0000      -0.877737       -23.8844
  27   2.0000      -0.874983       -23.8095
  28   2.0000      -0.865320       -23.5466
  29   2.0000      -0.846807       -23.0428
  30   2.0000      -0.842453       -22.9243
  31   2.0000      -0.833327       -22.6760
  32   2.0000      -0.824081       -22.4244
  33   2.0000      -0.822814       -22.3899
  34   2.0000      -0.787492       -21.4288
  35   2.0000      -0.779510       -21.2115
  36   2.0000      -0.765899       -20.8412
  37   2.0000      -0.754233       -20.5237
  38   2.0000      -0.740124       -20.1398
  39   0.0000      -0.307292        -8.3618
  40   0.0000      -0.181739        -4.9454
  41   0.0000      -0.106399        -2.8953
  42   0.0000      -0.045357        -1.2342
  43   0.0000      -0.029113        -0.7922

MULLIKEN ATOMIC CHARGES
-----------------------
   0 C :   -0.193058
   1 O :   -0.241004
   2 C :    0.291426
   3 O :   -0.358482
   4 C :    0.003494
   5 C :   -0.224421
   6 C :   -0.166950
   7 C :   -0.186237
   8 C :   -0.173581
   9 C :   -0.253845
  10 H :    0.128942
  11 H :    0.130607
  12 H :    0.127848
  13 H :    0.086086
  14 H :    0.117629
  15 H :    0.104847
  16 H :    0.103878
  17 H :    0.087781
  18 H :    0.090627
  19 H :    0.103458
  20 H :    0.103147
  21 H :    0.091814
  22 H :    0.114809
  23 H :    0.111185
Sum of atomic charges:    0.0000000

LOEWDIN ATOMIC CHARGES
----------------------
   0 C :   -0.289482
   1 O :    0.224721
   2 C :   -0.438940
   3 O :    0.087323
   4 C :   -0.218420
   5 C :   -0.223361
   6 C :   -0.257337
   7 C :   -0.259335
   8 C :   -0.257225
   9 C :   -0.219452
  10 H :    0.110745
  11 H :    0.111268
  12 H :    0.109097
  13 H :    0.160415
  14 H :    0.144587
  15 H :    0.136811
  16 H :    0.132709
  17 H :    0.133200
  18 H :    0.134865
  19 H :    0.131420
  20 H :    0.132923
  21 H :    0.134364
  22 H :    0.142514
  23 H :    0.136591

  Mayer bond orders larger than 0.100000
B(  0-C ,  1-O ) :   0.9062 B(  0-C , 10-H ) :   0.9781 B(  0-C , 11-H ) :   0.9785
B(  0-C , 12-H ) :   0.9731 B(  1-O ,  2-C ) :   1.2196 B(  2-C ,  3-O ) :   2.0338
B(  2-C ,  4-C ) :   0.9485 B(  4-C ,  5-C ) :   0.9724 B(  4-C ,  9-C ) :   0.9484
B(  4-C , 13-H ) :   0.9565 B(  5-C ,  6-C ) :   0.9852 B(  5-C , 14-H ) :   0.9681
B(  5-C , 15-H ) :   0.9767 B(  6-C ,  7-C ) :   0.9874 B(  6-C , 16-H ) :   0.9784
B(  6-C , 17-H ) :   0.9713 B(  7-C ,  8-C ) :   0.9897 B(  7-C , 18-H ) :   0.9736
B(  7-C , 19-H ) :   0.9764 B(  8-C ,  9-C ) :   0.9859 B(  8-C , 20-H ) :   0.9766
B(  8-C , 21-H ) :   0.9746 B(  9-C , 22-H ) :   0.9724 B(  9-C , 23-H ) :   0.9710

FINAL SINGLE POINT ENERGY      -463.786216032328

DIPOLE MOMENT
-------------

Method             : SCF
Type of density    : Electron Density
Multiplicity       :   1
Irrep              :   0
Energy             :  -463.8029249987280878 Eh
Relativity type    :
Basis              : AO
                                X                 Y                 Z
Electronic contribution:     -7.224773510      -1.398097264       0.433675647
Nuclear contribution   :      7.316808711       1.901562784      -0.937669050
                        -----------------------------------------
Total Dipole Moment    :      0.092035201       0.503465519      -0.503993403
                        -----------------------------------------
Magnitude (a.u.)       :      0.718301717
Magnitude (Debye)      :      1.825777869

Rotational constants in cm-1:             0.101476             0.024323             0.022060
Rotational constants in MHz :          3042.184139           729.193740           661.348235

                             ****ORCA TERMINATED NORMALLY****
TOTAL RUN TIME: 0 days 0 hours 4 minutes 23 seconds 668 msec
