                         Program Version 6.0.0  -   RELEASE  -
|  1> ! wb97x-v def2-tzvp def2/J RIJCOSX DEFGRID2 scfconv7 GCP(DFT/TZ) printgap
|  2> %output
|  3>     printlevel normal
|  4> end
|  5> %cpcm
|  6>     smd true
|  7>     smdsolvent "water"
|  8> end
|  9> * xyz 0 1
| 10> C -3.5779012162255555 0.3722551981234959 -0.25455999792059564
| 11> O -2.186330560853836 0.45958037108718663 -0.6545543032079246
| 12> C -1.3142293856050218 -0.25037992354489413 0.09121238091743607
| 13> O -1.6635653413194376 -0.9504134717150634 1.0284926069768905
| 14> C 0.10750014555591403 -0.026375647876876598 -0.3429984166439704
| 15> C 0.9583017970060833 -1.2889126733950347 -0.17240959982081322
| 16> C 2.4072972371690273 -1.0192461787620206 -0.5795556808089073
| 17> C 3.0004771826723604 0.13907363196925596 0.22462568391568913
| 18> C 2.146580151281348 1.4003129251673372 0.08498101217868452
| 19> C 0.6943544583201786 1.1385097259492816 0.48563656387192716
| 20> H -3.7019915921714865 0.7474185911293102 0.7643873995571036
| 21> H -3.9256823749127943 -0.6617929305214969 -0.31881476753756455
| 22> H -4.12142088008935 0.9999427401970897 -0.959827352757307
| 23> H 0.0994770420442574 0.2747388038259813 -1.3971417871067051
| 24> H 0.924815548031778 -1.6001438464424516 0.8791365536478501
| 25> H 0.5351720557981877 -2.1054352982117512 -0.7687231065007671
| 26> H 3.004875572713614 -1.9267254617426908 -0.43741278869435646
| 27> H 2.4444250960795726 -0.7756539224139126 -1.6502732426075808
| 28> H 3.05083563070463 -0.14675825597276956 1.2843878109789435
| 29> H 4.026663004568104 0.3412235805011841 -0.10293977350912756
| 30> H 2.554905088557625 2.2085662991763404 0.7023884073907677
| 31> H 2.174483552908933 1.745451029819442 -0.9574506565590197
| 32> H 0.6445112494338165 0.8706841052466564 1.549542975753889
| 33> H 0.08780380493050598 2.039645188863684 0.3424448524898861
| 34> *
| 35>
| 36>                          ****END OF INPUT****

CARTESIAN COORDINATES (ANGSTROEM)
---------------------------------
  C     -3.577901    0.372255   -0.254560
  O     -2.186331    0.459580   -0.654554
  C     -1.314229   -0.250380    0.091212
  O     -1.663565   -0.950413    1.028493
  C      0.107500   -0.026376   -0.342998
  C      0.958302   -1.288913   -0.172410
  C      2.407297   -1.019246   -0.579556
  C      3.000477    0.139074    0.224626
  C      2.146580    1.400313    0.084981
  C      0.694354    1.138510    0.485637
  H     -3.701992    0.747419    0.764387
  H     -3.925682   -0.661793   -0.318815
  H     -4.121421    0.999943   -0.959827
  H      0.099477    0.274739   -1.397142
  H      0.924816   -1.600144    0.879137
  H      0.535172   -2.105435   -0.768723
  H      3.004876   -1.926725   -0.437413
  H      2.444425   -0.775654   -1.650273
  H      3.050836   -0.146758    1.284388
  H      4.026663    0.341224   -0.102940
  H      2.554905    2.208566    0.702388
  H      2.174484    1.745451   -0.957451
  H      0.644511    0.870684    1.549543
  H      0.087804    2.039645    0.342445

 Total Charge           Charge          ....    0
 Multiplicity           Mult            ....    1
 Number of Electrons    NEL             ....   78
 Basis Dimension        Dim             ....  394

ORBITAL ENERGIES
----------------

  NO   OCC          E(Eh)            E(eV)
   0   2.0000     -21.723285      -591.1206
   1   2.0000     -21.667988      -589.6159
   2   2.0000     -12.182234      -331.4954
   3   2.0000     -12.091955      -329.0388
   4   2.0000     -12.055301      -328.0414
   5   2.0000     -12.040749      -327.6454
   6   2.0000     -12.035913      -327.5138
   7   2.0000     -12.032352      -327.4169
   8   2.0000     -12.031417      -327.3915
   9   2.0000     -12.029425      -327.3373
  10   2.0000      -1.763124       -47.9770
  11   2.0000      -1.701154       -46.2908
  12   2.0000      -1.347785       -36.6751
  13   2.0000      -1.292175       -35.1619
  14   2.0000      -1.245170       -33.8828
  15   2.0000      -1.243088       -33.8261
  16   2.0000      -1.141747       -31.0685
  17   2.0000      -1.105573       -30.0842
  18   2.0000      -1.093380       -29.7524
  19   2.0000      -1.070677       -29.1346
  20   2.0000      -1.022423       -27.8216
  21   2.0000      -0.997519       -27.1439
  22   2.0000      -0.991651       -26.9842
  23   2.0000      -0.951084       -25.8803
  24   2.0000      -0.914800       -24.8930
  25   2.0000      -0.902964       -24.5709
  26   2.0000      -0.871322       -23.7099
  27   2.0000      -0.867101       -23.5950
  28   2.0000      -0.866140       -23.5689
  29   2.0000      -0.839316       -22.8389
  30   2.0000      -0.835091       -22.7240
  31   2.0000      -0.827383       -22.5142
  32   2.0000      -0.816026       -22.2052
  33   2.0000      -0.814919       -22.1751
  34   2.0000      -0.779749       -21.2180
  35   2.0000      -0.770205       -20.9583
  36   2.0000      -0.756851       -20.5950
  37   2.0000      -0.745270       -20.2798
  38   2.0000      -0.730273       -19.8717
  39   0.0000      -0.313576        -8.5328
  40   0.0000      -0.177235        -4.8228
  41   0.0000      -0.109642        -2.9835
  42   0.0000      -0.039827        -1.0837
  43   0.0000      -0.022521        -0.6128

MULLIKEN ATOMIC CHARGES
-----------------------
   0 C :   -0.233165
   1 O :   -0.267105
   2 C :    0.390173
   3 O :   -0.478230
   4 C :   -0.013052
   5 C :   -0.234471
   6 C :   -0.194809
   7 C :   -0.208233
   8 C :   -0.195379
   9 C :   -0.253605
  10 H :    0.150354
  11 H :    0.149756
  12 H :    0.156873
  13 H :    0.106623
  14 H :    0.107202
  15 H :    0.122667
  16 H :    0.115380
  17 H :    0.102555
  18 H :    0.098897
  19 H :    0.115580
  20 H :    0.115657
  21 H :    0.104819
  22 H :    0.116721
  23 H :    0.124792
Sum of atomic charges:    0.0000000

LOEWDIN ATOMIC CHARGES
----------------------
   0 C :   -0.286188
   1 O :    0.220735
   2 C :   -0.420404
   3 O :    0.025557
   4 C :   -0.215612
   5 C :   -0.227035
   6 C :   -0.257373
   7 C :   -0.261361
   8 C :   -0.257045
   9 C :   -0.218267
  10 H :    0.115819
  11 H :    0.115650
  12 H :    0.119002
  13 H :    0.167854
  14 H :    0.140847
  15 H :    0.139797
  16 H :    0.134622
  17 H :    0.137261
  18 H :    0.136374
  19 H :    0.133397
  20 H :    0.135461
  21 H :    0.137906
  22 H :    0.143134
  23 H :    0.139870

  Mayer bond orders larger than 0.100000
B(  0-C ,  1-O ) :   0.8798 B(  0-C , 10-H ) :   0.9728 B(  0-C , 11-H ) :   0.9725
B(  0-C , 12-H ) :   0.9677 B(  1-O ,  2-C ) :   1.2383 B(  2-C ,  3-O ) :   1.9052
B(  2-C ,  4-C ) :   0.9536 B(  4-C ,  5-C ) :   0.9836 B(  4-C ,  9-C ) :   0.9516
B(  4-C , 13-H ) :   0.9574 B(  5-C ,  6-C ) :   0.9952 B(  5-C , 14-H ) :   0.9590
B(  5-C , 15-H ) :   0.9733 B(  6-C ,  7-C ) :   0.9887 B(  6-C , 16-H ) :   0.9751
B(  6-C , 17-H ) :   0.9709 B(  7-C ,  8-C ) :   0.9904 B(  7-C , 18-H ) :   0.9722
B(  7-C , 19-H ) :   0.9735 B(  8-C ,  9-C ) :   0.9873 B(  8-C , 20-H ) :   0.9731
B(  8-C , 21-H ) :   0.9729 B(  9-C , 22-H ) :   0.9680 B(  9-C , 23-H ) :   0.9667

FINAL SINGLE POINT ENERGY      -463.791972892198

DIPOLE MOMENT
-------------

Method             : SCF
Type of density    : Electron Density
Multiplicity       :   1
Irrep              :   0
Energy             :  -463.8086818585978222 Eh
Relativity type    :
Basis              : AO
                                X                 Y                 Z
Electronic contribution:     -7.173920335      -1.152883843       0.152057018
Nuclear contribution   :      7.316808711       1.901562784      -0.937669050
                        -----------------------------------------
Total Dipole Moment    :      0.142888376       0.748678941      -0.785612032
                        -----------------------------------------
Magnitude (a.u.)       :      1.094588283
Magnitude (Debye)      :      2.782222308

Rotational constants in cm-1:             0.101476             0.024323             0.022060
Rotational constants in MHz :          3042.184139           729.193740           661.348235

                             ****ORCA TERMINATED NORMALLY****
TOTAL RUN TIME: 0 days 0 hours 4 minutes 33 seconds 988 msec
