                         Program Version 6.0.0  -   RELEASE  -
|  1> ! pbe def2-sv(p) def2/J RI DEFGRID1 loosescf d4 GCP(DFT/SV(P)) printgap
|  2> %output
|  3>     printlevel normal
|  4> end
|  5> * xyz 0 1
|  6> C 2.2946094129 -0.3693541517 -0.3886091499
|  7> C 1.0627486484 -0.2422079802 0.5084372611
|  8> H 1.3082982265 -0.6244687678 1.5075991701
|  9> C 0.520242188 1.1914219625 0.560191416
| 10> C -0.5195884373 1.1910616823 -0.5585292828
| 11> C -1.0607961136 -0.2432186517 -0.5080403494
| 12> H -1.3012437135 -0.626275845 -1.5082392866
| 13> O -0.0001692534 -1.052878372 0.0036424109
| 14> C -2.2967994623 -0.3705176792 0.3831314734
| 15> H 3.1331248391 0.158217625 0.0563914784
| 16> H 2.5535341371 -1.4186522787 -0.5019311591
| 17> H 2.0898968584 0.0439176833 -1.3726867005
| 18> H 0.0439776225 1.3806640201 1.5219884198
| 19> H 1.3069050431 1.9249490518 0.4056276552
| 20> H -1.3071851895 1.9234573008 -0.4032751719
| 21> H -0.0437887841 1.3818829069 -1.5202351297
| 22> H -2.0971376156 0.0443783162 1.3676539194
| 23> H -2.5547039104 -1.4200369538 0.4966283381
| 24> H -3.133951013 0.155343275 -0.0666018029
| 25> *
| 26>
| 27>                          ****END OF INPUT****

CARTESIAN COORDINATES (ANGSTROEM)
---------------------------------
  C      2.294609   -0.369354   -0.388609
  C      1.062749   -0.242208    0.508437
  H      1.308298   -0.624469    1.507599
  C      0.520242    1.191422    0.560191
  C     -0.519588    1.191062   -0.558529
  C     -1.060796   -0.243219   -0.508040
  H     -1.301244   -0.626276   -1.508239
  O     -0.000169   -1.052878    0.003642
  C     -2.296799   -0.370518    0.383131
  H      3.133125    0.158218    0.056391
  H      2.553534   -1.418652   -0.501931
  H      2.089897    0.043918   -1.372687
  H      0.043978    1.380664    1.521988
  H      1.306905    1.924949    0.405628
  H     -1.307185    1.923457   -0.403275
  H     -0.043789    1.381883   -1.520235
  H     -2.097138    0.044378    1.367654
  H     -2.554704   -1.420037    0.496628
  H     -3.133951    0.155343   -0.066602

 Total Charge           Charge          ....    0
 Multiplicity           Mult            ....    1
 Number of Electrons    NEL             ....   56
 Basis Dimension        Dim             ....  122

ORBITAL ENERGIES
----------------

  NO   OCC          E(Eh)            E(eV)
   0   2.0000     -18.738998      -509.9141
   1   2.0000      -9.932991      -270.2904
   2   2.0000      -9.932972      -270.2899
   3   2.0000      -9.887885      -269.0630
   4   2.0000      -9.887827      -269.0614
   5   2.0000      -9.870313      -268.5849
   6   2.0000      -9.870303      -268.5846
   7   2.0000      -0.928056       -25.2537
   8   2.0000      -0.708384       -19.2761
   9   2.0000      -0.699078       -19.0229
  10   2.0000      -0.631757       -17.1910
  11   2.0000      -0.583000       -15.8642
  12   2.0000      -0.525662       -14.3040
  13   2.0000      -0.491098       -13.3635
  14   2.0000      -0.440427       -11.9846
  15   2.0000      -0.438431       -11.9303
  16   2.0000      -0.405219       -11.0266
  17   2.0000      -0.366373        -9.9695
  18   2.0000      -0.357390        -9.7251
  19   2.0000      -0.354365        -9.6428
  20   2.0000      -0.345235        -9.3943
  21   2.0000      -0.343992        -9.3605
  22   2.0000      -0.322958        -8.7881
  23   2.0000      -0.300581        -8.1792
  24   2.0000      -0.284505        -7.7418
  25   2.0000      -0.281847        -7.6694
  26   2.0000      -0.259767        -7.0686
  27   2.0000      -0.192677        -5.2430
  28   0.0000       0.029430         0.8008
  29   0.0000       0.049278         1.3409
  30   0.0000       0.069405         1.8886
  31   0.0000       0.089833         2.4445
  32   0.0000       0.090731         2.4689

MULLIKEN ATOMIC CHARGES
-----------------------
   0 C :   -0.230214
   1 C :    0.020171
   2 H :    0.068308
   3 C :   -0.165137
   4 C :   -0.166078
   5 C :    0.020819
   6 H :    0.068207
   7 O :   -0.338570
   8 C :   -0.230219
   9 H :    0.092347
  10 H :    0.109495
  11 H :    0.088732
  12 H :    0.092005
  13 H :    0.093751
  14 H :    0.093772
  15 H :    0.092028
  16 H :    0.088714
  17 H :    0.109496
  18 H :    0.092375
Sum of atomic charges:   -0.0000000

LOEWDIN ATOMIC CHARGES
----------------------
   0 C :   -0.348454
   1 C :   -0.042364
   2 H :    0.105375
   3 C :   -0.232781
   4 C :   -0.232866
   5 C :   -0.042272
   6 H :    0.105264
   7 O :   -0.170634
   8 C :   -0.348341
   9 H :    0.119042
  10 H :    0.124522
  11 H :    0.116434
  12 H :    0.120192
  13 H :    0.123375
  14 H :    0.123395
  15 H :    0.120151
  16 H :    0.116427
  17 H :    0.124518
  18 H :    0.119018

  Mayer bond orders larger than 0.100000
B(  0-C ,  1-C ) :   1.1176 B(  0-C ,  9-H ) :   0.9386 B(  0-C , 10-H ) :   0.9442
B(  0-C , 11-H ) :   0.9446 B(  1-C ,  2-H ) :   0.9123 B(  1-C ,  3-C ) :   1.0765
B(  1-C ,  7-O ) :   1.0090 B(  3-C ,  4-C ) :   1.1248 B(  3-C , 12-H ) :   0.9140
B(  3-C , 13-H ) :   0.9245 B(  4-C ,  5-C ) :   1.0762 B(  4-C , 14-H ) :   0.9245
B(  4-C , 15-H ) :   0.9141 B(  5-C ,  6-H ) :   0.9123 B(  5-C ,  7-O ) :   1.0089
B(  5-C ,  8-C ) :   1.1179 B(  8-C , 16-H ) :   0.9446 B(  8-C , 17-H ) :   0.9442
B(  8-C , 18-H ) :   0.9386

Dispersion correction           -0.015785179
FINAL SINGLE POINT ENERGY      -310.345276240620

DIPOLE MOMENT
-------------

Method             : SCF
Type of density    : Electron Density
Multiplicity       :   1
Irrep              :   0
Energy             :  -310.4154325605875329 Eh
Relativity type    :
Basis              : AO
                                X                 Y                 Z
Electronic contribution:      0.003116014      -2.157769588       0.014199169
Nuclear contribution   :     -0.002135429       2.726991099      -0.015970081
                        -----------------------------------------
Total Dipole Moment    :      0.000980585       0.569221510      -0.001770913
                        -----------------------------------------
Magnitude (a.u.)       :      0.569225110
Magnitude (Debye)      :      1.446855245

Rotational constants in cm-1:             0.162379             0.070237             0.059848
Rotational constants in MHz :          4867.998006          2105.647945          1794.184632

                             ****ORCA TERMINATED NORMALLY****
TOTAL RUN TIME: 0 days 0 hours 0 minutes 8 seconds 544 msec
