                         Program Version 6.0.0  -   RELEASE  -
|  1> ! pbe def2-sv(p) def2/J RI DEFGRID1 loosescf d4 GCP(DFT/SV(P)) printgap
|  2> %output
|  3>     printlevel normal
|  4> end
|  5> * xyz 0 1
|  6> C -2.5540479945 -0.6975678932 -0.3167706597
|  7> C -1.1743384793 -0.3078026113 0.2258288295
|  8> H -1.2156987077 -0.2696356656 1.3260864746
|  9> C -0.719365943 1.0606773091 -0.3206490082
| 10> H -0.723919422 1.0103167223 -1.4164394174
| 11> C 0.7090190374 1.3334038052 0.1720758898
| 12> H 0.7112668594 1.4125209462 1.2671625741
| 13> C 1.6340287198 0.1662298083 -0.2207654295
| 14> H 1.6941133085 0.1038890696 -1.320577757
| 15> C 1.0461161542 -1.1565281674 0.309218169
| 16> H 1.0541275191 -1.1286115317 1.4107715317
| 17> O -0.269974672 -1.3226033891 -0.1762009695
| 18> O 1.7739243206 -2.2671299659 -0.0468595862
| 19> O 2.9151138089 0.3339619054 0.325627627
| 20> O 1.2305398589 2.5575157471 -0.2823253177
| 21> O -1.6080607241 2.0930880543 0.0032554872
| 22> O -3.1010138736 -1.7979660567 0.3592334539
| 23> H -2.4584757947 -0.9044142333 -1.3894090277
| 24> H -3.2437874847 0.1350504586 -0.1700407182
| 25> H 1.7488781288 -2.3860506332 -1.0099548269
| 26> H 3.1760510865 1.2627244786 0.2096302181
| 27> H 1.0175746205 2.6862067261 -1.2179895555
| 28> H -1.5740214213 2.2805469374 0.9526297565
| 29> H -2.5010096216 -2.5510224356 0.2576512537
| 30> *
| 31>
| 32>                          ****END OF INPUT****

CARTESIAN COORDINATES (ANGSTROEM)
---------------------------------
  C     -2.554048   -0.697568   -0.316771
  C     -1.174338   -0.307803    0.225829
  H     -1.215699   -0.269636    1.326086
  C     -0.719366    1.060677   -0.320649
  H     -0.723919    1.010317   -1.416439
  C      0.709019    1.333404    0.172076
  H      0.711267    1.412521    1.267163
  C      1.634029    0.166230   -0.220765
  H      1.694113    0.103889   -1.320578
  C      1.046116   -1.156528    0.309218
  H      1.054128   -1.128612    1.410772
  O     -0.269975   -1.322603   -0.176201
  O      1.773924   -2.267130   -0.046860
  O      2.915114    0.333962    0.325628
  O      1.230540    2.557516   -0.282325
  O     -1.608061    2.093088    0.003255
  O     -3.101014   -1.797966    0.359233
  H     -2.458476   -0.904414   -1.389409
  H     -3.243787    0.135050   -0.170041
  H      1.748878   -2.386051   -1.009955
  H      3.176051    1.262724    0.209630
  H      1.017575    2.686207   -1.217990
  H     -1.574021    2.280547    0.952630
  H     -2.501010   -2.551022    0.257651

 Total Charge           Charge          ....    0
 Multiplicity           Mult            ....    1
 Number of Electrons    NEL             ....   96
 Basis Dimension        Dim             ....  192

ORBITAL ENERGIES
----------------

  NO   OCC          E(Eh)            E(eV)
   0   2.0000     -18.781401      -511.0679
   1   2.0000     -18.770184      -510.7627
   2   2.0000     -18.767274      -510.6835
   3   2.0000     -18.761956      -510.5388
   4   2.0000     -18.752972      -510.2943
   5   2.0000     -18.746802      -510.1264
   6   2.0000      -9.991802      -271.8908
   7   2.0000      -9.956408      -270.9276
   8   2.0000      -9.955179      -270.8942
   9   2.0000      -9.950150      -270.7574
  10   2.0000      -9.946607      -270.6609
  11   2.0000      -9.933121      -270.2940
  12   2.0000      -0.989991       -26.9390
  13   2.0000      -0.959067       -26.0975
  14   2.0000      -0.942787       -25.6545
  15   2.0000      -0.929260       -25.2865
  16   2.0000      -0.922622       -25.1058
  17   2.0000      -0.914847       -24.8942
  18   2.0000      -0.712439       -19.3865
  19   2.0000      -0.695431       -18.9237
  20   2.0000      -0.621365       -16.9082
  21   2.0000      -0.593795       -16.1580
  22   2.0000      -0.571005       -15.5378
  23   2.0000      -0.556763       -15.1503
  24   2.0000      -0.511883       -13.9291
  25   2.0000      -0.486512       -13.2387
  26   2.0000      -0.477461       -12.9924
  27   2.0000      -0.462027       -12.5724
  28   2.0000      -0.455543       -12.3959
  29   2.0000      -0.436896       -11.8885
  30   2.0000      -0.427360       -11.6291
  31   2.0000      -0.419592       -11.4177
  32   2.0000      -0.396922       -10.8008
  33   2.0000      -0.375461       -10.2168
  34   2.0000      -0.361308        -9.8317
  35   2.0000      -0.358865        -9.7652
  36   2.0000      -0.324576        -8.8322
  37   2.0000      -0.316173        -8.6035
  38   2.0000      -0.315440        -8.5836
  39   2.0000      -0.294891        -8.0244
  40   2.0000      -0.291456        -7.9309
  41   2.0000      -0.286212        -7.7882
  42   2.0000      -0.264211        -7.1896
  43   2.0000      -0.255214        -6.9447
  44   2.0000      -0.234352        -6.3770
  45   2.0000      -0.224443        -6.1074
  46   2.0000      -0.220349        -5.9960
  47   2.0000      -0.210004        -5.7145
  48   0.0000       0.006110         0.1663
  49   0.0000       0.011337         0.3085
  50   0.0000       0.037851         1.0300
  51   0.0000       0.039178         1.0661
  52   0.0000       0.042745         1.1631

MULLIKEN ATOMIC CHARGES
-----------------------
   0 C :    0.109139
   1 C :   -0.035072
   2 H :    0.047727
   3 C :    0.049876
   4 H :    0.051700
   5 C :    0.041150
   6 H :    0.054241
   7 C :    0.046037
   8 H :    0.023427
   9 C :    0.207610
  10 H :    0.056648
  11 O :   -0.315837
  12 O :   -0.365019
  13 O :   -0.404397
  14 O :   -0.408286
  15 O :   -0.401241
  16 O :   -0.432473
  17 H :    0.067718
  18 H :    0.089551
  19 H :    0.301886
  20 H :    0.304120
  21 H :    0.305794
  22 H :    0.305106
  23 H :    0.300596
Sum of atomic charges:   -0.0000000

LOEWDIN ATOMIC CHARGES
----------------------
   0 C :   -0.125011
   1 C :   -0.081385
   2 H :    0.101515
   3 C :   -0.082884
   4 H :    0.111937
   5 C :   -0.091662
   6 H :    0.112470
   7 C :   -0.097293
   8 H :    0.090754
   9 C :    0.005694
  10 H :    0.102203
  11 O :   -0.160642
  12 O :   -0.277861
  13 O :   -0.316089
  14 O :   -0.310759
  15 O :   -0.302930
  16 O :   -0.334166
  17 H :    0.101045
  18 H :    0.119263
  19 H :    0.288006
  20 H :    0.283599
  21 H :    0.289852
  22 H :    0.290224
  23 H :    0.284121

  Mayer bond orders larger than 0.100000
B(  0-C ,  1-C ) :   1.0465 B(  0-C , 16-O ) :   1.0843 B(  0-C , 17-H ) :   0.9060
B(  0-C , 18-H ) :   0.9106 B(  1-C ,  2-H ) :   0.8699 B(  1-C ,  3-C ) :   0.9715
B(  1-C , 11-O ) :   0.9780 B(  3-C ,  4-H ) :   0.8609 B(  3-C ,  5-C ) :   1.0086
B(  3-C , 15-O ) :   1.0513 B(  5-C ,  6-H ) :   0.8653 B(  5-C ,  7-C ) :   0.9965
B(  5-C , 14-O ) :   1.0574 B(  7-C ,  8-H ) :   0.8548 B(  7-C ,  9-C ) :   0.9727
B(  7-C , 13-O ) :   1.0979 B(  9-C , 10-H ) :   0.8792 B(  9-C , 11-O ) :   0.9950
B(  9-C , 12-O ) :   1.1667 B( 12-O , 19-H ) :   0.8425 B( 13-O , 20-H ) :   0.8305
B( 14-O , 21-H ) :   0.8454 B( 15-O , 22-H ) :   0.8456 B( 16-O , 23-H ) :   0.8472

Dispersion correction           -0.023628896
FINAL SINGLE POINT ENERGY      -685.697144781895

DIPOLE MOMENT
-------------

Method             : SCF
Type of density    : Electron Density
Multiplicity       :   1
Irrep              :   0
Energy             :  -685.8263843353987568 Eh
Relativity type    :
Basis              : AO
                                X                 Y                 Z
Electronic contribution:      2.320595558      -0.971047764       0.368036372
Nuclear contribution   :     -2.157837423       1.543435280      -1.029729915
                        -----------------------------------------
Total Dipole Moment    :      0.162758135       0.572387516      -0.661693543
                        -----------------------------------------
Magnitude (a.u.)       :      0.889919111
Magnitude (Debye)      :      2.261994616

Rotational constants in cm-1:             0.039039             0.025849             0.016289
Rotational constants in MHz :          1170.361693           774.922240           488.344513

                             ****ORCA TERMINATED NORMALLY****
TOTAL RUN TIME: 0 days 0 hours 0 minutes 11 seconds 943 msec
