                         Program Version 6.0.0  -   RELEASE  -
|  1> ! r2scan-3c def2/J RI DEFGRID2 scfconv6 printgap
|  2> %output
|  3>     printlevel normal
|  4> end
|  5> * xyz 0 1
|  6> C 1.7286030506 1.4818680733 0.4502581081
|  7> C 0.4494018078 0.7801403698 0.922234857
|  8> H 0.2470959222 1.1405529578 1.9336478235
|  9> C 0.4481714769 -0.7787770888 0.9238634478
| 10> H 0.2454538821 -1.1367991738 1.9360688643
| 11> C 1.7264431776 -1.4831581087 0.45344601
| 12> O 2.7775461884 -1.2760401015 1.3765151251
| 13> S 3.7957764885 -0.0019038654 1.0401557901
| 14> O 4.735364884 -0.0012496905 2.1248921384
| 15> O 2.7798963879 1.2749514857 1.3730727973
| 16> C -0.7713250577 -1.1161122504 0.0241866056
| 17> C -0.4364579063 -0.6718082407 -1.3874474101
| 18> C -0.4353312864 0.6693812552 -1.3888767695
| 19> C -0.7695529463 1.1173599851 0.0217465069
| 20> C -1.7620033334 0.0018429757 0.4205697902
| 21> Cl -3.2417073804 0.0018577858 -0.5560246532
| 22> Cl -2.2263872332 0.0039190919 2.1183441156
| 23> Cl -1.3613211486 2.7626523948 0.1663417063
| 24> Cl -0.078867605 1.7378787702 -2.6488960803
| 25> Cl -0.0808000553 -1.7435851052 -2.6446684829
| 26> Cl -1.3657614729 -2.7601755368 0.1723886182
| 27> H 1.5438760642 2.558594684 0.4183614175
| 28> H 2.0299367262 1.1432108333 -0.5443306772
| 29> H 1.5401723341 -2.5596682877 0.4232013257
| 30> H 2.0287790367 -1.146600731 -0.5415276768
| 31> *
| 32>
| 33>                          ****END OF INPUT****

CARTESIAN COORDINATES (ANGSTROEM)
---------------------------------
  C      1.728603    1.481868    0.450258
  C      0.449402    0.780140    0.922235
  H      0.247096    1.140553    1.933648
  C      0.448171   -0.778777    0.923863
  H      0.245454   -1.136799    1.936069
  C      1.726443   -1.483158    0.453446
  O      2.777546   -1.276040    1.376515
  S      3.795776   -0.001904    1.040156
  O      4.735365   -0.001250    2.124892
  O      2.779896    1.274951    1.373073
  C     -0.771325   -1.116112    0.024187
  C     -0.436458   -0.671808   -1.387447
  C     -0.435331    0.669381   -1.388877
  C     -0.769553    1.117360    0.021747
  C     -1.762003    0.001843    0.420570
  Cl    -3.241707    0.001858   -0.556025
  Cl    -2.226387    0.003919    2.118344
  Cl    -1.361321    2.762652    0.166342
  Cl    -0.078868    1.737879   -2.648896
  Cl    -0.080800   -1.743585   -2.644668
  Cl    -1.365761   -2.760176    0.172389
  H      1.543876    2.558595    0.418361
  H      2.029937    1.143211   -0.544331
  H      1.540172   -2.559668    0.423201
  H      2.028779   -1.146601   -0.541528

 Total Charge           Charge          ....    0
 Multiplicity           Mult            ....    1
 Number of Electrons    NEL             ....  202
 Basis Dimension        Dim             ....  462

ORBITAL ENERGIES
----------------

  NO   OCC          E(Eh)            E(eV)
   0   2.0000    -101.267108     -2755.6181
   1   2.0000    -101.267093     -2755.6177
   2   2.0000    -101.251796     -2755.2014
   3   2.0000    -101.246709     -2755.0630
   4   2.0000    -101.246707     -2755.0630
   5   2.0000    -101.242845     -2754.9579
   6   2.0000     -88.749430     -2414.9948
   7   2.0000     -19.011190      -517.3208
   8   2.0000     -19.011183      -517.3206
   9   2.0000     -18.969009      -516.1730
  10   2.0000     -10.208146      -277.7778
  11   2.0000     -10.171781      -276.7882
  12   2.0000     -10.171772      -276.7880
  13   2.0000     -10.146463      -276.0993
  14   2.0000     -10.145782      -276.0808
  15   2.0000     -10.126031      -275.5433
  16   2.0000     -10.126022      -275.5431
  17   2.0000     -10.097704      -274.7725
  18   2.0000     -10.097606      -274.7698
  19   2.0000      -9.422462      -256.3982
  20   2.0000      -9.422443      -256.3977
  21   2.0000      -9.407821      -255.9998
  22   2.0000      -9.402497      -255.8549
  23   2.0000      -9.402495      -255.8549
  24   2.0000      -9.398733      -255.7525
  25   2.0000      -8.024496      -218.3576
  26   2.0000      -7.169021      -195.0790
  27   2.0000      -7.169003      -195.0785
  28   2.0000      -7.158852      -194.8023
  29   2.0000      -7.158833      -194.8018
  30   2.0000      -7.157871      -194.7756
  31   2.0000      -7.157853      -194.7751
  32   2.0000      -7.154608      -194.6868
  33   2.0000      -7.149192      -194.5394
  34   2.0000      -7.149192      -194.5394
  35   2.0000      -7.145736      -194.4454
  36   2.0000      -7.143602      -194.3873
  37   2.0000      -7.143511      -194.3848
  38   2.0000      -7.138400      -194.2457
  39   2.0000      -7.138399      -194.2457
  40   2.0000      -7.138183      -194.2398
  41   2.0000      -7.138183      -194.2398
  42   2.0000      -7.134427      -194.1376
  43   2.0000      -7.134307      -194.1344
  44   2.0000      -5.971923      -162.5043
  45   2.0000      -5.970857      -162.4753
  46   2.0000      -5.962029      -162.2351
  47   2.0000      -1.104984       -30.0681
  48   2.0000      -1.028663       -27.9913
  49   2.0000      -1.015178       -27.6244
  50   2.0000      -0.979365       -26.6499
  51   2.0000      -0.901291       -24.5254
  52   2.0000      -0.887898       -24.1609
  53   2.0000      -0.859469       -23.3873
  54   2.0000      -0.852234       -23.1905
  55   2.0000      -0.826006       -22.4768
  56   2.0000      -0.818635       -22.2762
  57   2.0000      -0.780898       -21.2493
  58   2.0000      -0.743055       -20.2195
  59   2.0000      -0.714924       -19.4541
  60   2.0000      -0.675165       -18.3722
  61   2.0000      -0.674832       -18.3631
  62   2.0000      -0.614854       -16.7310
  63   2.0000      -0.591053       -16.0834
  64   2.0000      -0.573540       -15.6068
  65   2.0000      -0.546342       -14.8667
  66   2.0000      -0.526586       -14.3291
  67   2.0000      -0.525274       -14.2934
  68   2.0000      -0.520343       -14.1593
  69   2.0000      -0.502917       -13.6851
  70   2.0000      -0.490644       -13.3511
  71   2.0000      -0.467313       -12.7162
  72   2.0000      -0.458529       -12.4772
  73   2.0000      -0.457130       -12.4391
  74   2.0000      -0.448539       -12.2054
  75   2.0000      -0.436341       -11.8734
  76   2.0000      -0.431120       -11.7314
  77   2.0000      -0.427961       -11.6454
  78   2.0000      -0.419345       -11.4110
  79   2.0000      -0.411604       -11.2003
  80   2.0000      -0.397328       -10.8119
  81   2.0000      -0.380643       -10.3578
  82   2.0000      -0.376611       -10.2481
  83   2.0000      -0.355282        -9.6677
  84   2.0000      -0.354506        -9.6466
  85   2.0000      -0.342040        -9.3074
  86   2.0000      -0.337811        -9.1923
  87   2.0000      -0.332354        -9.0438
  88   2.0000      -0.323790        -8.8108
  89   2.0000      -0.320071        -8.7096
  90   2.0000      -0.319238        -8.6869
  91   2.0000      -0.318567        -8.6686
  92   2.0000      -0.311980        -8.4894
  93   2.0000      -0.309644        -8.4259
  94   2.0000      -0.307843        -8.3768
  95   2.0000      -0.303854        -8.2683
  96   2.0000      -0.300466        -8.1761
  97   2.0000      -0.298182        -8.1140
  98   2.0000      -0.273050        -7.4301
  99   2.0000      -0.261666        -7.1203
 100   2.0000      -0.251212        -6.8358
 101   0.0000      -0.083161        -2.2629
 102   0.0000      -0.076097        -2.0707
 103   0.0000      -0.037216        -1.0127
 104   0.0000      -0.033243        -0.9046
 105   0.0000      -0.023245        -0.6325

MULLIKEN ATOMIC CHARGES
-----------------------
   0 C :   -0.291400
   1 C :   -0.142995
   2 H :    0.224452
   3 C :   -0.142966
   4 H :    0.224432
   5 C :   -0.291147
   6 O :   -0.231490
   7 S :    0.594869
   8 O :   -0.444028
   9 O :   -0.231365
  10 C :    0.326624
  11 C :   -0.206756
  12 C :   -0.207357
  13 C :    0.326853
  14 C :    0.091070
  15 Cl:   -0.066063
  16 Cl:   -0.058730
  17 Cl:   -0.078702
  18 Cl:   -0.017377
  19 Cl:   -0.017299
  20 Cl:   -0.078713
  21 H :    0.186600
  22 H :    0.172465
  23 H :    0.186599
  24 H :    0.172423
Sum of atomic charges:    0.0000000

LOEWDIN ATOMIC CHARGES
----------------------
   0 C :    0.017966
   1 C :   -0.176205
   2 H :    0.197282
   3 C :   -0.176192
   4 H :    0.197300
   5 C :    0.017925
   6 O :   -0.661022
   7 S :    1.047888
   8 O :   -0.476284
   9 O :   -0.661044
  10 C :   -0.230183
  11 C :   -0.242928
  12 C :   -0.242892
  13 C :   -0.230179
  14 C :   -0.291025
  15 Cl:    0.171711
  16 Cl:    0.180144
  17 Cl:    0.171249
  18 Cl:    0.226548
  19 Cl:    0.226679
  20 Cl:    0.171222
  21 H :    0.200116
  22 H :    0.180920
  23 H :    0.200082
  24 H :    0.180922

  Mayer bond orders larger than 0.100000
B(  0-C ,  1-C ) :   0.8486 B(  0-C ,  9-O ) :   0.9095 B(  0-C , 21-H ) :   0.9525
B(  0-C , 22-H ) :   0.9753 B(  1-C ,  2-H ) :   0.9456 B(  1-C ,  3-C ) :   0.9451
B(  1-C , 13-C ) :   0.8785 B(  3-C ,  4-H ) :   0.9456 B(  3-C ,  5-C ) :   0.8487
B(  3-C , 10-C ) :   0.8786 B(  5-C ,  6-O ) :   0.9093 B(  5-C , 23-H ) :   0.9525
B(  5-C , 24-H ) :   0.9752 B(  6-O ,  7-S ) :   0.7802 B(  7-S ,  8-O ) :   1.7101
B(  7-S ,  9-O ) :   0.7802 B( 10-C , 11-C ) :   0.7941 B( 10-C , 14-C ) :   0.8436
B( 10-C , 20-Cl) :   1.0682 B( 11-C , 12-C ) :   1.3650 B( 11-C , 19-Cl) :   1.2405
B( 12-C , 13-C ) :   0.7940 B( 12-C , 18-Cl) :   1.2406 B( 13-C , 14-C ) :   0.8436
B( 13-C , 17-Cl) :   1.0683 B( 14-C , 15-Cl) :   1.0550 B( 14-C , 16-Cl) :   1.0373

Dispersion correction           -0.018458376
FINAL SINGLE POINT ENERGY     -3731.290349781792

DIPOLE MOMENT
-------------

Method             : SCF
Type of density    : Electron Density
Multiplicity       :   1
Irrep              :   0
Energy             : -3731.3011228866048441 Eh
Relativity type    :
Basis              : AO
                                X                 Y                 Z
Electronic contribution:    -18.899755062       0.003263161      -8.954648792
Nuclear contribution   :     18.419525141      -0.004064442       7.996712149
                        -----------------------------------------
Total Dipole Moment    :     -0.480229921      -0.000801281      -0.957936644
                        -----------------------------------------
Magnitude (a.u.)       :      1.071570825
Magnitude (Debye)      :      2.723716579

Rotational constants in cm-1:             0.009652             0.005993             0.005744
Rotational constants in MHz :           289.372136           179.677872           172.210894

                             ****ORCA TERMINATED NORMALLY****
TOTAL RUN TIME: 0 days 0 hours 1 minutes 19 seconds 354 msec
