                         Program Version 6.0.0  -   RELEASE  -
|  1> ! r2scan-3c def2/J RI DEFGRID2 scfconv6 printgap
|  2> %output
|  3>     printlevel normal
|  4> end
|  5> %cpcm
|  6>     smd true
|  7>     smdsolvent "water"
|  8> end
|  9> * xyz 0 1
| 10> C 1.7286030506 1.4818680733 0.4502581081
| 11> C 0.4494018078 0.7801403698 0.922234857
| 12> H 0.2470959222 1.1405529578 1.9336478235
| 13> C 0.4481714769 -0.7787770888 0.9238634478
| 14> H 0.2454538821 -1.1367991738 1.9360688643
| 15> C 1.7264431776 -1.4831581087 0.45344601
| 16> O 2.7775461884 -1.2760401015 1.3765151251
| 17> S 3.7957764885 -0.0019038654 1.0401557901
| 18> O 4.735364884 -0.0012496905 2.1248921384
| 19> O 2.7798963879 1.2749514857 1.3730727973
| 20> C -0.7713250577 -1.1161122504 0.0241866056
| 21> C -0.4364579063 -0.6718082407 -1.3874474101
| 22> C -0.4353312864 0.6693812552 -1.3888767695
| 23> C -0.7695529463 1.1173599851 0.0217465069
| 24> C -1.7620033334 0.0018429757 0.4205697902
| 25> Cl -3.2417073804 0.0018577858 -0.5560246532
| 26> Cl -2.2263872332 0.0039190919 2.1183441156
| 27> Cl -1.3613211486 2.7626523948 0.1663417063
| 28> Cl -0.078867605 1.7378787702 -2.6488960803
| 29> Cl -0.0808000553 -1.7435851052 -2.6446684829
| 30> Cl -1.3657614729 -2.7601755368 0.1723886182
| 31> H 1.5438760642 2.558594684 0.4183614175
| 32> H 2.0299367262 1.1432108333 -0.5443306772
| 33> H 1.5401723341 -2.5596682877 0.4232013257
| 34> H 2.0287790367 -1.146600731 -0.5415276768
| 35> *
| 36>
| 37>                          ****END OF INPUT****

CARTESIAN COORDINATES (ANGSTROEM)
---------------------------------
  C      1.728603    1.481868    0.450258
  C      0.449402    0.780140    0.922235
  H      0.247096    1.140553    1.933648
  C      0.448171   -0.778777    0.923863
  H      0.245454   -1.136799    1.936069
  C      1.726443   -1.483158    0.453446
  O      2.777546   -1.276040    1.376515
  S      3.795776   -0.001904    1.040156
  O      4.735365   -0.001250    2.124892
  O      2.779896    1.274951    1.373073
  C     -0.771325   -1.116112    0.024187
  C     -0.436458   -0.671808   -1.387447
  C     -0.435331    0.669381   -1.388877
  C     -0.769553    1.117360    0.021747
  C     -1.762003    0.001843    0.420570
  Cl    -3.241707    0.001858   -0.556025
  Cl    -2.226387    0.003919    2.118344
  Cl    -1.361321    2.762652    0.166342
  Cl    -0.078868    1.737879   -2.648896
  Cl    -0.080800   -1.743585   -2.644668
  Cl    -1.365761   -2.760176    0.172389
  H      1.543876    2.558595    0.418361
  H      2.029937    1.143211   -0.544331
  H      1.540172   -2.559668    0.423201
  H      2.028779   -1.146601   -0.541528

 Total Charge           Charge          ....    0
 Multiplicity           Mult            ....    1
 Number of Electrons    NEL             ....  202
 Basis Dimension        Dim             ....  462

ORBITAL ENERGIES
----------------

  NO   OCC          E(Eh)            E(eV)
   0   2.0000    -101.256886     -2755.3399
   1   2.0000    -101.256875     -2755.3397
   2   2.0000    -101.245629     -2755.0336
   3   2.0000    -101.239672     -2754.8715
   4   2.0000    -101.239283     -2754.8609
   5   2.0000    -101.239280     -2754.8609
   6   2.0000     -88.752497     -2415.0782
   7   2.0000     -19.010065      -517.2902
   8   2.0000     -19.010059      -517.2900
   9   2.0000     -18.977945      -516.4161
  10   2.0000     -10.201233      -277.5897
  11   2.0000     -10.162184      -276.5271
  12   2.0000     -10.162175      -276.5268
  13   2.0000     -10.135516      -275.8014
  14   2.0000     -10.134834      -275.7829
  15   2.0000     -10.108337      -275.0618
  16   2.0000     -10.108330      -275.0617
  17   2.0000     -10.081691      -274.3367
  18   2.0000     -10.081592      -274.3341
  19   2.0000      -9.412249      -256.1203
  20   2.0000      -9.412235      -256.1199
  21   2.0000      -9.401693      -255.8331
  22   2.0000      -9.395651      -255.6687
  23   2.0000      -9.395150      -255.6550
  24   2.0000      -9.395149      -255.6550
  25   2.0000      -8.027571      -218.4413
  26   2.0000      -7.158793      -194.8007
  27   2.0000      -7.158780      -194.8003
  28   2.0000      -7.148612      -194.5236
  29   2.0000      -7.148598      -194.5232
  30   2.0000      -7.148453      -194.5193
  31   2.0000      -7.147701      -194.4988
  32   2.0000      -7.147687      -194.4985
  33   2.0000      -7.142526      -194.3580
  34   2.0000      -7.141767      -194.3374
  35   2.0000      -7.141766      -194.3373
  36   2.0000      -7.137510      -194.2215
  37   2.0000      -7.137365      -194.2176
  38   2.0000      -7.131418      -194.0557
  39   2.0000      -7.131265      -194.0516
  40   2.0000      -7.131088      -194.0468
  41   2.0000      -7.131087      -194.0468
  42   2.0000      -7.130867      -194.0408
  43   2.0000      -7.130867      -194.0407
  44   2.0000      -5.974832      -162.5835
  45   2.0000      -5.973960      -162.5597
  46   2.0000      -5.965084      -162.3182
  47   2.0000      -1.107913       -30.1478
  48   2.0000      -1.024986       -27.8913
  49   2.0000      -1.019428       -27.7401
  50   2.0000      -0.970074       -26.3971
  51   2.0000      -0.892419       -24.2840
  52   2.0000      -0.878521       -23.9058
  53   2.0000      -0.851091       -23.1594
  54   2.0000      -0.842840       -22.9349
  55   2.0000      -0.817433       -22.2435
  56   2.0000      -0.812531       -22.1101
  57   2.0000      -0.770374       -20.9629
  58   2.0000      -0.730044       -19.8655
  59   2.0000      -0.706430       -19.2229
  60   2.0000      -0.668593       -18.1934
  61   2.0000      -0.665112       -18.0986
  62   2.0000      -0.603768       -16.4294
  63   2.0000      -0.579303       -15.7636
  64   2.0000      -0.564506       -15.3610
  65   2.0000      -0.538952       -14.6656
  66   2.0000      -0.516340       -14.0503
  67   2.0000      -0.512970       -13.9586
  68   2.0000      -0.510919       -13.9028
  69   2.0000      -0.496595       -13.5130
  70   2.0000      -0.483174       -13.1478
  71   2.0000      -0.463775       -12.6200
  72   2.0000      -0.449057       -12.2195
  73   2.0000      -0.448591       -12.2068
  74   2.0000      -0.435628       -11.8540
  75   2.0000      -0.433771       -11.8035
  76   2.0000      -0.423698       -11.5294
  77   2.0000      -0.419087       -11.4039
  78   2.0000      -0.410022       -11.1573
  79   2.0000      -0.403144       -10.9701
  80   2.0000      -0.388038       -10.5591
  81   2.0000      -0.374000       -10.1771
  82   2.0000      -0.371658       -10.1133
  83   2.0000      -0.344853        -9.3839
  84   2.0000      -0.343652        -9.3512
  85   2.0000      -0.339965        -9.2509
  86   2.0000      -0.330293        -8.9877
  87   2.0000      -0.324852        -8.8397
  88   2.0000      -0.319564        -8.6958
  89   2.0000      -0.315473        -8.5845
  90   2.0000      -0.314113        -8.5475
  91   2.0000      -0.312477        -8.5029
  92   2.0000      -0.307441        -8.3659
  93   2.0000      -0.302991        -8.2448
  94   2.0000      -0.299848        -8.1593
  95   2.0000      -0.296492        -8.0680
  96   2.0000      -0.294509        -8.0140
  97   2.0000      -0.293378        -7.9832
  98   2.0000      -0.267108        -7.2684
  99   2.0000      -0.263529        -7.1710
 100   2.0000      -0.241182        -6.5629
 101   0.0000      -0.072198        -1.9646
 102   0.0000      -0.067833        -1.8458
 103   0.0000      -0.033384        -0.9084
 104   0.0000      -0.030967        -0.8427
 105   0.0000      -0.021058        -0.5730

MULLIKEN ATOMIC CHARGES
-----------------------
   0 C :   -0.313280
   1 C :   -0.125850
   2 H :    0.252709
   3 C :   -0.125696
   4 H :    0.252671
   5 C :   -0.313144
   6 O :   -0.256889
   7 S :    0.622982
   8 O :   -0.508762
   9 O :   -0.256773
  10 C :    0.316133
  11 C :   -0.194711
  12 C :   -0.195210
  13 C :    0.316335
  14 C :    0.075295
  15 Cl:   -0.083022
  16 Cl:   -0.064675
  17 Cl:   -0.094410
  18 Cl:   -0.023391
  19 Cl:   -0.023283
  20 Cl:   -0.094428
  21 H :    0.210724
  22 H :    0.207988
  23 H :    0.210721
  24 H :    0.207964
Sum of atomic charges:    0.0000000

LOEWDIN ATOMIC CHARGES
----------------------
   0 C :    0.026484
   1 C :   -0.172164
   2 H :    0.204994
   3 C :   -0.172151
   4 H :    0.205009
   5 C :    0.026447
   6 O :   -0.669672
   7 S :    1.061721
   8 O :   -0.534457
   9 O :   -0.669687
  10 C :   -0.228279
  11 C :   -0.238939
  12 C :   -0.238893
  13 C :   -0.228277
  14 C :   -0.293060
  15 Cl:    0.159173
  16 Cl:    0.176161
  17 Cl:    0.162800
  18 Cl:    0.224641
  19 Cl:    0.224786
  20 Cl:    0.162771
  21 H :    0.210199
  22 H :    0.195114
  23 H :    0.210163
  24 H :    0.195115

  Mayer bond orders larger than 0.100000
B(  0-C ,  1-C ) :   0.8288 B(  0-C ,  9-O ) :   0.9007 B(  0-C , 21-H ) :   0.9415
B(  0-C , 22-H ) :   0.9666 B(  1-C ,  2-H ) :   0.9444 B(  1-C ,  3-C ) :   0.9061
B(  1-C , 13-C ) :   0.8709 B(  3-C ,  4-H ) :   0.9445 B(  3-C ,  5-C ) :   0.8289
B(  3-C , 10-C ) :   0.8710 B(  5-C ,  6-O ) :   0.9005 B(  5-C , 23-H ) :   0.9415
B(  5-C , 24-H ) :   0.9665 B(  6-O ,  7-S ) :   0.8035 B(  7-S ,  8-O ) :   1.6462
B(  7-S ,  9-O ) :   0.8035 B( 10-C , 11-C ) :   0.8054 B( 10-C , 14-C ) :   0.8517
B( 10-C , 20-Cl) :   1.0420 B( 11-C , 12-C ) :   1.3746 B( 11-C , 19-Cl) :   1.2284
B( 12-C , 13-C ) :   0.8053 B( 12-C , 18-Cl) :   1.2284 B( 13-C , 14-C ) :   0.8517
B( 13-C , 17-Cl) :   1.0421 B( 14-C , 15-Cl) :   1.0417 B( 14-C , 16-Cl) :   1.0468

Dispersion correction           -0.018458376
FINAL SINGLE POINT ENERGY     -3731.302703256678

DIPOLE MOMENT
-------------

Method             : SCF
Type of density    : Electron Density
Multiplicity       :   1
Irrep              :   0
Energy             : -3731.3134763614916665 Eh
Relativity type    :
Basis              : AO
                                X                 Y                 Z
Electronic contribution:    -18.861358663       0.002850732      -9.293018976
Nuclear contribution   :     18.419525141      -0.004064442       7.996712149
                        -----------------------------------------
Total Dipole Moment    :     -0.441833522      -0.001213710      -1.296306827
                        -----------------------------------------
Magnitude (a.u.)       :      1.369536317
Magnitude (Debye)      :      3.481084672

Rotational constants in cm-1:             0.009652             0.005993             0.005744
Rotational constants in MHz :           289.372136           179.677872           172.210894

                             ****ORCA TERMINATED NORMALLY****
TOTAL RUN TIME: 0 days 0 hours 1 minutes 52 seconds 436 msec
