                         Program Version 6.0.0  -   RELEASE  -
|  1> ! pbe def2-sv(p) def2/J RI DEFGRID1 loosescf d4 GCP(DFT/SV(P)) printgap
|  2> %output
|  3>     printlevel normal
|  4> end
|  5> * xyz 0 1
|  6> C -1.9552645073 -1.2819772118 -0.3354583174
|  7> C -1.2619148706 -0.4263540127 0.7413152847
|  8> H -1.9193350006 -0.3770952326 1.6158425197
|  9> C -0.9835004577 1.0129662856 0.2468968198
| 10> H -1.3439589039 1.1169688505 -0.784396597
| 11> C 0.5258437109 1.2758225051 0.2355263561
| 12> H 0.8707255259 1.3721862993 1.2769744069
| 13> C 1.2443521501 0.0928869204 -0.4182631204
| 14> H 0.8107202995 -0.0886556161 -1.4118323062
| 15> C 1.0293102523 -1.1549362035 0.4466518499
| 16> H 1.8778954025 -1.2277284635 1.143783749
| 17> O -0.0990233033 -1.0466827313 1.2821419331
| 18> O 0.9627605653 -2.2717476121 -0.3777972944
| 19> O 2.6261754845 0.3182414069 -0.5139480622
| 20> O 0.8476078583 2.4321735769 -0.495482138
| 21> O -1.5603273119 1.9962086342 1.0772431303
| 22> O -1.433149154 -1.004893897 -1.6161784777
| 23> H -3.0291833671 -1.05117823 -0.3174149036
| 24> H -1.811405671 -2.3336097305 -0.0695892326
| 25> H 1.0538617218 -3.0807168947 0.1486702256
| 26> H 2.7533413419 1.1863291082 -0.9295419924
| 27> H 0.3706674224 3.1819476472 -0.1106963312
| 28> H -2.5221883885 1.995639293 0.9758931875
| 29> H -1.7489042669 -1.6744798778 -2.2383194751
| 30> *
| 31>
| 32>                          ****END OF INPUT****

CARTESIAN COORDINATES (ANGSTROEM)
---------------------------------
  C     -1.955265   -1.281977   -0.335458
  C     -1.261915   -0.426354    0.741315
  H     -1.919335   -0.377095    1.615843
  C     -0.983500    1.012966    0.246897
  H     -1.343959    1.116969   -0.784397
  C      0.525844    1.275823    0.235526
  H      0.870726    1.372186    1.276974
  C      1.244352    0.092887   -0.418263
  H      0.810720   -0.088656   -1.411832
  C      1.029310   -1.154936    0.446652
  H      1.877895   -1.227728    1.143784
  O     -0.099023   -1.046683    1.282142
  O      0.962761   -2.271748   -0.377797
  O      2.626175    0.318241   -0.513948
  O      0.847608    2.432174   -0.495482
  O     -1.560327    1.996209    1.077243
  O     -1.433149   -1.004894   -1.616178
  H     -3.029183   -1.051178   -0.317415
  H     -1.811406   -2.333610   -0.069589
  H      1.053862   -3.080717    0.148670
  H      2.753341    1.186329   -0.929542
  H      0.370667    3.181948   -0.110696
  H     -2.522188    1.995639    0.975893
  H     -1.748904   -1.674480   -2.238319

 Total Charge           Charge          ....    0
 Multiplicity           Mult            ....    1
 Number of Electrons    NEL             ....   96
 Basis Dimension        Dim             ....  192

ORBITAL ENERGIES
----------------

  NO   OCC          E(Eh)            E(eV)
   0   2.0000     -18.756157      -510.3810
   1   2.0000     -18.755804      -510.3714
   2   2.0000     -18.755477      -510.3625
   3   2.0000     -18.749301      -510.1944
   4   2.0000     -18.748054      -510.1605
   5   2.0000     -18.731448      -509.7086
   6   2.0000      -9.972635      -271.3692
   7   2.0000      -9.942287      -270.5434
   8   2.0000      -9.936699      -270.3913
   9   2.0000      -9.934715      -270.3373
  10   2.0000      -9.930505      -270.2228
  11   2.0000      -9.922879      -270.0153
  12   2.0000      -0.968444       -26.3527
  13   2.0000      -0.939361       -25.5613
  14   2.0000      -0.929709       -25.2987
  15   2.0000      -0.922871       -25.1126
  16   2.0000      -0.903266       -24.5791
  17   2.0000      -0.900444       -24.5023
  18   2.0000      -0.698424       -19.0051
  19   2.0000      -0.684179       -18.6175
  20   2.0000      -0.619432       -16.8556
  21   2.0000      -0.569568       -15.4987
  22   2.0000      -0.560479       -15.2514
  23   2.0000      -0.503362       -13.6972
  24   2.0000      -0.494789       -13.4639
  25   2.0000      -0.491062       -13.3625
  26   2.0000      -0.470284       -12.7971
  27   2.0000      -0.458365       -12.4728
  28   2.0000      -0.432274       -11.7628
  29   2.0000      -0.411647       -11.2015
  30   2.0000      -0.406873       -11.0716
  31   2.0000      -0.396920       -10.8007
  32   2.0000      -0.379152       -10.3172
  33   2.0000      -0.376092       -10.2340
  34   2.0000      -0.359083        -9.7711
  35   2.0000      -0.341496        -9.2926
  36   2.0000      -0.322885        -8.7862
  37   2.0000      -0.304693        -8.2911
  38   2.0000      -0.291721        -7.9381
  39   2.0000      -0.289412        -7.8753
  40   2.0000      -0.277660        -7.5555
  41   2.0000      -0.252520        -6.8714
  42   2.0000      -0.242374        -6.5953
  43   2.0000      -0.235346        -6.4041
  44   2.0000      -0.222742        -6.0611
  45   2.0000      -0.220171        -5.9912
  46   2.0000      -0.203975        -5.5505
  47   2.0000      -0.198232        -5.3942
  48   0.0000       0.013129         0.3573
  49   0.0000       0.022341         0.6079
  50   0.0000       0.040748         1.1088
  51   0.0000       0.046952         1.2776
  52   0.0000       0.057581         1.5669

MULLIKEN ATOMIC CHARGES
-----------------------
   0 C :    0.038233
   1 C :    0.032084
   2 H :    0.061510
   3 C :    0.037929
   4 H :    0.077314
   5 C :    0.043771
   6 H :    0.060353
   7 C :    0.024693
   8 H :    0.081604
   9 C :    0.211768
  10 H :    0.063906
  11 O :   -0.314633
  12 O :   -0.384589
  13 O :   -0.421582
  14 O :   -0.429585
  15 O :   -0.418366
  16 O :   -0.418230
  17 H :    0.063708
  18 H :    0.071890
  19 H :    0.297342
  20 H :    0.305347
  21 H :    0.306899
  22 H :    0.301869
  23 H :    0.306765
Sum of atomic charges:   -0.0000000

LOEWDIN ATOMIC CHARGES
----------------------
   0 C :   -0.137052
   1 C :   -0.064104
   2 H :    0.119419
   3 C :   -0.083724
   4 H :    0.110857
   5 C :   -0.071311
   6 H :    0.107286
   7 C :   -0.079421
   8 H :    0.114551
   9 C :    0.001913
  10 H :    0.101979
  11 O :   -0.151497
  12 O :   -0.302327
  13 O :   -0.318768
  14 O :   -0.323411
  15 O :   -0.324095
  16 O :   -0.329621
  17 H :    0.093965
  18 H :    0.102511
  19 H :    0.283040
  20 H :    0.284505
  21 H :    0.289134
  22 H :    0.285600
  23 H :    0.290572

  Mayer bond orders larger than 0.100000
B(  0-C ,  1-C ) :   1.0455 B(  0-C , 16-O ) :   1.0756 B(  0-C , 17-H ) :   0.9100
B(  0-C , 18-H ) :   0.9044 B(  1-C ,  2-H ) :   0.8907 B(  1-C ,  3-C ) :   0.9859
B(  1-C , 11-O ) :   1.0548 B(  3-C ,  4-H ) :   0.8736 B(  3-C ,  5-C ) :   1.0339
B(  3-C , 15-O ) :   1.0639 B(  5-C ,  6-H ) :   0.8697 B(  5-C ,  7-C ) :   1.0257
B(  5-C , 14-O ) :   1.0706 B(  7-C ,  8-H ) :   0.8665 B(  7-C ,  9-C ) :   1.0030
B(  7-C , 13-O ) :   1.0767 B(  9-C , 10-H ) :   0.8853 B(  9-C , 11-O ) :   1.0426
B(  9-C , 12-O ) :   1.1510 B( 12-O , 19-H ) :   0.8441 B( 13-O , 20-H ) :   0.8356
B( 14-O , 21-H ) :   0.8390 B( 15-O , 22-H ) :   0.8498 B( 16-O , 23-H ) :   0.8449

Dispersion correction           -0.025148751
FINAL SINGLE POINT ENERGY      -685.689418038922

DIPOLE MOMENT
-------------

Method             : SCF
Type of density    : Electron Density
Multiplicity       :   1
Irrep              :   0
Energy             :  -685.8193358775218940 Eh
Relativity type    :
Basis              : AO
                                X                 Y                 Z
Electronic contribution:      2.863509229       0.605179937       0.576675940
Nuclear contribution   :     -4.331100160      -0.913504308      -0.666847922
                        -----------------------------------------
Total Dipole Moment    :     -1.467590931      -0.308324371      -0.090171982
                        -----------------------------------------
Magnitude (a.u.)       :      1.502337527
Magnitude (Debye)      :      3.818638521

Rotational constants in cm-1:             0.035021             0.033117             0.022295
Rotational constants in MHz :          1049.904293           992.836199           668.389776

                             ****ORCA TERMINATED NORMALLY****
TOTAL RUN TIME: 0 days 0 hours 0 minutes 11 seconds 943 msec
