                         Program Version 6.0.0  -   RELEASE  -
|  1> ! pbe def2-sv(p) def2/J RI DEFGRID1 loosescf d4 GCP(DFT/SV(P)) printgap
|  2> %output
|  3>     printlevel normal
|  4> end
|  5> * xyz 0 1
|  6> C -2.4537644107 -0.5579898597 -0.2197410131
|  7> C -1.0173029123 -0.2358781462 0.1835964851
|  8> H -0.9342977271 -0.3678059814 1.2723989375
|  9> C -0.6269722756 1.2116377109 -0.1839739578
| 10> H -1.1307918924 1.4931143799 -1.1153009305
| 11> C 0.9029223479 1.2997453356 -0.4047757831
| 12> H 1.2253238946 2.30585466 -0.098189444
| 13> C 1.608184593 0.269287848 0.4865275853
| 14> H 2.6890574922 0.3290550154 0.3054254791
| 15> C 1.1571754698 -1.1525599124 0.0538909672
| 16> H 1.2045243415 -1.8292277388 0.9247980919
| 17> O -0.1538010876 -1.1514645128 -0.4680827674
| 18> O 2.0024171267 -1.6856818139 -0.899180406
| 19> O 1.2923814429 0.5684231489 1.8230053841
| 20> O 1.2877117904 1.0276896113 -1.7274069837
| 21> O -1.0666103406 2.1322875808 0.777040167
| 22> O -2.9048235045 -1.6520657915 0.5447440967
| 23> H -2.4630379095 -0.7922831504 -1.2899658078
| 24> H -3.0690185992 0.3297451681 -0.0232467111
| 25> H 1.9089016823 -1.1624072452 -1.7142225427
| 26> H 1.8953379426 0.1036788136 2.419965906
| 27> H 0.9396339766 1.7096669928 -2.3192345709
| 28> H -0.624450394 1.9392147686 1.6186399056
| 29> H -3.7786159727 -1.9230371143 0.2300201377
| 30> *
| 31>
| 32>                          ****END OF INPUT****

CARTESIAN COORDINATES (ANGSTROEM)
---------------------------------
  C     -2.453764   -0.557990   -0.219741
  C     -1.017303   -0.235878    0.183596
  H     -0.934298   -0.367806    1.272399
  C     -0.626972    1.211638   -0.183974
  H     -1.130792    1.493114   -1.115301
  C      0.902922    1.299745   -0.404776
  H      1.225324    2.305855   -0.098189
  C      1.608185    0.269288    0.486528
  H      2.689057    0.329055    0.305425
  C      1.157175   -1.152560    0.053891
  H      1.204524   -1.829228    0.924798
  O     -0.153801   -1.151465   -0.468083
  O      2.002417   -1.685682   -0.899180
  O      1.292381    0.568423    1.823005
  O      1.287712    1.027690   -1.727407
  O     -1.066610    2.132288    0.777040
  O     -2.904824   -1.652066    0.544744
  H     -2.463038   -0.792283   -1.289966
  H     -3.069019    0.329745   -0.023247
  H      1.908902   -1.162407   -1.714223
  H      1.895338    0.103679    2.419966
  H      0.939634    1.709667   -2.319235
  H     -0.624450    1.939215    1.618640
  H     -3.778616   -1.923037    0.230020

 Total Charge           Charge          ....    0
 Multiplicity           Mult            ....    1
 Number of Electrons    NEL             ....   96
 Basis Dimension        Dim             ....  192

ORBITAL ENERGIES
----------------

  NO   OCC          E(Eh)            E(eV)
   0   2.0000     -18.775404      -510.9047
   1   2.0000     -18.769798      -510.7522
   2   2.0000     -18.752930      -510.2932
   3   2.0000     -18.746698      -510.1236
   4   2.0000     -18.743061      -510.0246
   5   2.0000     -18.740366      -509.9513
   6   2.0000      -9.977205      -271.4935
   7   2.0000      -9.947369      -270.6817
   8   2.0000      -9.945796      -270.6389
   9   2.0000      -9.939429      -270.4656
  10   2.0000      -9.933291      -270.2986
  11   2.0000      -9.926738      -270.1203
  12   2.0000      -0.974925       -26.5291
  13   2.0000      -0.946901       -25.7665
  14   2.0000      -0.942112       -25.6362
  15   2.0000      -0.926052       -25.1991
  16   2.0000      -0.916669       -24.9438
  17   2.0000      -0.898646       -24.4534
  18   2.0000      -0.698720       -19.0131
  19   2.0000      -0.686029       -18.6678
  20   2.0000      -0.612943       -16.6790
  21   2.0000      -0.585918       -15.9436
  22   2.0000      -0.554568       -15.0906
  23   2.0000      -0.522597       -14.2206
  24   2.0000      -0.508312       -13.8319
  25   2.0000      -0.490663       -13.3516
  26   2.0000      -0.473652       -12.8887
  27   2.0000      -0.459463       -12.5026
  28   2.0000      -0.447257       -12.1705
  29   2.0000      -0.436495       -11.8776
  30   2.0000      -0.413629       -11.2554
  31   2.0000      -0.381875       -10.3913
  32   2.0000      -0.380356       -10.3500
  33   2.0000      -0.365628        -9.9492
  34   2.0000      -0.355445        -9.6722
  35   2.0000      -0.351836        -9.5740
  36   2.0000      -0.331136        -9.0107
  37   2.0000      -0.322475        -8.7750
  38   2.0000      -0.300580        -8.1792
  39   2.0000      -0.293675        -7.9913
  40   2.0000      -0.272977        -7.4281
  41   2.0000      -0.272540        -7.4162
  42   2.0000      -0.256232        -6.9724
  43   2.0000      -0.243732        -6.6323
  44   2.0000      -0.231909        -6.3106
  45   2.0000      -0.213540        -5.8107
  46   2.0000      -0.209584        -5.7031
  47   2.0000      -0.190223        -5.1762
  48   0.0000       0.002198         0.0598
  49   0.0000       0.020606         0.5607
  50   0.0000       0.034380         0.9355
  51   0.0000       0.055029         1.4974
  52   0.0000       0.068383         1.8608

MULLIKEN ATOMIC CHARGES
-----------------------
   0 C :    0.058920
   1 C :    0.032434
   2 H :    0.062633
   3 C :    0.056052
   4 H :    0.045606
   5 C :    0.063360
   6 H :    0.068719
   7 C :   -0.049403
   8 H :    0.081963
   9 C :    0.233559
  10 H :    0.048948
  11 O :   -0.295025
  12 O :   -0.397034
  13 O :   -0.418072
  14 O :   -0.421941
  15 O :   -0.424553
  16 O :   -0.432050
  17 H :    0.070292
  18 H :    0.079494
  19 H :    0.303560
  20 H :    0.316900
  21 H :    0.311137
  22 H :    0.306194
  23 H :    0.298311
Sum of atomic charges:   -0.0000000

LOEWDIN ATOMIC CHARGES
----------------------
   0 C :   -0.125229
   1 C :   -0.068512
   2 H :    0.108301
   3 C :   -0.074507
   4 H :    0.108422
   5 C :   -0.072198
   6 H :    0.104916
   7 C :   -0.095702
   8 H :    0.112466
   9 C :    0.003401
  10 H :    0.091964
  11 O :   -0.149353
  12 O :   -0.298006
  13 O :   -0.313700
  14 O :   -0.313469
  15 O :   -0.313648
  16 O :   -0.343195
  17 H :    0.101742
  18 H :    0.101324
  19 H :    0.279538
  20 H :    0.296518
  21 H :    0.292200
  22 H :    0.281101
  23 H :    0.285627

  Mayer bond orders larger than 0.100000
B(  0-C ,  1-C ) :   1.0604 B(  0-C , 16-O ) :   1.1053 B(  0-C , 17-H ) :   0.8984
B(  0-C , 18-H ) :   0.9170 B(  1-C ,  2-H ) :   0.8664 B(  1-C ,  3-C ) :   0.9791
B(  1-C , 11-O ) :   1.0287 B(  3-C ,  4-H ) :   0.8823 B(  3-C ,  5-C ) :   0.9627
B(  3-C , 15-O ) :   1.0328 B(  5-C ,  6-H ) :   0.8927 B(  5-C ,  7-C ) :   1.0305
B(  5-C , 14-O ) :   1.0391 B(  7-C ,  8-H ) :   0.8975 B(  7-C ,  9-C ) :   0.9269
B(  7-C , 13-O ) :   1.0501 B(  9-C , 10-H ) :   0.9036 B(  9-C , 11-O ) :   1.0354
B(  9-C , 12-O ) :   1.1454 B( 12-O , 19-H ) :   0.8269 B( 13-O , 20-H ) :   0.8410
B( 14-O , 21-H ) :   0.8423 B( 15-O , 22-H ) :   0.8341 B( 16-O , 23-H ) :   0.8520

Dispersion correction           -0.024722158
FINAL SINGLE POINT ENERGY      -685.689760882126

DIPOLE MOMENT
-------------

Method             : SCF
Type of density    : Electron Density
Multiplicity       :   1
Irrep              :   0
Energy             :  -685.8199631666590221 Eh
Relativity type    :
Basis              : AO
                                X                 Y                 Z
Electronic contribution:      2.018729609      -1.275162220      -0.271180520
Nuclear contribution   :     -1.998501622       1.992255576       0.198779372
                        -----------------------------------------
Total Dipole Moment    :      0.020227987       0.717093357      -0.072401148
                        -----------------------------------------
Magnitude (a.u.)       :      0.721022870
Magnitude (Debye)      :      1.832694490

Rotational constants in cm-1:             0.038926             0.026768             0.021859
Rotational constants in MHz :          1166.971587           802.493583           655.304914

                             ****ORCA TERMINATED NORMALLY****
TOTAL RUN TIME: 0 days 0 hours 0 minutes 12 seconds 18 msec
