                         Program Version 6.0.0  -   RELEASE  -
|  1> ! wb97x-v def2-tzvp def2/J RIJCOSX DEFGRID2 scfconv7 GCP(DFT/TZ) printgap
|  2> %output
|  3>     printlevel normal
|  4> end
|  5> * xyz 0 1
|  6> C -2.579337752664538 -0.8637043419077046 0.32628403654320964
|  7> C -1.1506430156970198 -0.4245106525684123 0.5866302903603897
|  8> H -1.0022931883072062 -0.3694797640343316 1.678131825940187
|  9> C -0.8045937013843603 0.9279140518380222 -0.03632746310653257
| 10> H -0.9974232087883643 0.88567152367871 -1.1184125740379331
| 11> C 0.6667320926549773 1.2435056358950045 0.18878258907496978
| 12> H 0.8396155289658126 1.3790245624712756 1.2683861878130924
| 13> C 1.5420969393573127 0.10178149009665703 -0.3072974584917698
| 14> H 1.437825166845176 0.0018099144011364983 -1.3982828007442756
| 15> C 1.0890090271373323 -1.2035018780531666 0.3384673534485957
| 16> H 1.2106381815599472 -1.1617802178246144 1.4335442745491298
| 17> O -0.29119284905903686 -1.4326671438251108 0.026304586709810673
| 18> O 1.8355915904711295 -2.2539857716214473 -0.21565558525085574
| 19> O 2.891037078511195 0.41452784307455 0.04815135648227595
| 20> O 0.9492873200539891 2.4633324240323593 -0.5082916357033429
| 21> O -1.6418273071631029 1.9100575549747199 0.5817732123297485
| 22> O -2.91163871205451 -0.9046344581813901 -1.0661011156494165
| 23> H -3.264746062753055 -0.15245520008048347 0.7935106386687375
| 24> H -2.7330543063333637 -1.847027585720274 0.7910633779618509
| 25> H 1.7860872894453048 -3.010865876011637 0.3837541332073591
| 26> H 3.4655237590833994 -0.22233492708911923 -0.3973922323187296
| 27> H 1.8458905702641113 2.734064621035108 -0.27068165617457096
| 28> H -1.3935071866952693 2.768961687845963 0.21413854394409737
| 29> H -2.345272211883512 -1.5698120445155597 -1.479163189545018
| 30> *
| 31>
| 32>                          ****END OF INPUT****

CARTESIAN COORDINATES (ANGSTROEM)
---------------------------------
  C     -2.579338   -0.863704    0.326284
  C     -1.150643   -0.424511    0.586630
  H     -1.002293   -0.369480    1.678132
  C     -0.804594    0.927914   -0.036327
  H     -0.997423    0.885672   -1.118413
  C      0.666732    1.243506    0.188783
  H      0.839616    1.379025    1.268386
  C      1.542097    0.101781   -0.307297
  H      1.437825    0.001810   -1.398283
  C      1.089009   -1.203502    0.338467
  H      1.210638   -1.161780    1.433544
  O     -0.291193   -1.432667    0.026305
  O      1.835592   -2.253986   -0.215656
  O      2.891037    0.414528    0.048151
  O      0.949287    2.463332   -0.508292
  O     -1.641827    1.910058    0.581773
  O     -2.911639   -0.904634   -1.066101
  H     -3.264746   -0.152455    0.793511
  H     -2.733054   -1.847028    0.791063
  H      1.786087   -3.010866    0.383754
  H      3.465524   -0.222335   -0.397392
  H      1.845891    2.734065   -0.270682
  H     -1.393507    2.768962    0.214139
  H     -2.345272   -1.569812   -1.479163

 Total Charge           Charge          ....    0
 Multiplicity           Mult            ....    1
 Number of Electrons    NEL             ....   96
 Basis Dimension        Dim             ....  444

ORBITAL ENERGIES
----------------

  NO   OCC          E(Eh)            E(eV)
   0   2.0000     -21.703918      -590.5936
   1   2.0000     -21.694521      -590.3379
   2   2.0000     -21.690652      -590.2326
   3   2.0000     -21.684372      -590.0618
   4   2.0000     -21.675399      -589.8176
   5   2.0000     -21.669749      -589.6639
   6   2.0000     -12.164144      -331.0032
   7   2.0000     -12.111058      -329.5586
   8   2.0000     -12.110160      -329.5342
   9   2.0000     -12.108911      -329.5002
  10   2.0000     -12.102877      -329.3360
  11   2.0000     -12.093313      -329.0758
  12   2.0000      -1.731002       -47.1029
  13   2.0000      -1.694797       -46.1178
  14   2.0000      -1.689968       -45.9864
  15   2.0000      -1.685087       -45.8535
  16   2.0000      -1.675705       -45.5983
  17   2.0000      -1.669208       -45.4215
  18   2.0000      -1.338971       -36.4353
  19   2.0000      -1.326013       -36.0826
  20   2.0000      -1.237195       -33.6658
  21   2.0000      -1.202724       -32.7278
  22   2.0000      -1.168052       -31.7843
  23   2.0000      -1.123595       -30.5746
  24   2.0000      -1.094885       -29.7933
  25   2.0000      -1.072846       -29.1936
  26   2.0000      -1.049337       -28.5539
  27   2.0000      -1.042310       -28.3627
  28   2.0000      -1.034948       -28.1624
  29   2.0000      -1.022262       -27.8171
  30   2.0000      -1.001739       -27.2587
  31   2.0000      -0.989504       -26.9258
  32   2.0000      -0.975080       -26.5333
  33   2.0000      -0.971311       -26.4307
  34   2.0000      -0.962327       -26.1862
  35   2.0000      -0.946522       -25.7562
  36   2.0000      -0.939565       -25.5669
  37   2.0000      -0.933665       -25.4063
  38   2.0000      -0.924596       -25.1595
  39   2.0000      -0.908519       -24.7221
  40   2.0000      -0.900062       -24.4919
  41   2.0000      -0.887588       -24.1525
  42   2.0000      -0.845955       -23.0196
  43   2.0000      -0.835874       -22.7453
  44   2.0000      -0.817627       -22.2488
  45   2.0000      -0.805283       -21.9129
  46   2.0000      -0.799686       -21.7606
  47   2.0000      -0.775162       -21.0932
  48   0.0000      -0.240195        -6.5360
  49   0.0000      -0.198739        -5.4080
  50   0.0000      -0.177084        -4.8187
  51   0.0000      -0.151807        -4.1309
  52   0.0000      -0.130007        -3.5377

MULLIKEN ATOMIC CHARGES
-----------------------
   0 C :    0.006647
   1 C :   -0.018585
   2 H :    0.070835
   3 C :    0.128188
   4 H :    0.081389
   5 C :    0.055006
   6 H :    0.086550
   7 C :    0.072701
   8 H :    0.088252
   9 C :    0.068506
  10 H :    0.070544
  11 O :   -0.273231
  12 O :   -0.412376
  13 O :   -0.454046
  14 O :   -0.458610
  15 O :   -0.452831
  16 O :   -0.458550
  17 H :    0.115978
  18 H :    0.100411
  19 H :    0.317692
  20 H :    0.318401
  21 H :    0.319466
  22 H :    0.317404
  23 H :    0.310260
Sum of atomic charges:    0.0000000

LOEWDIN ATOMIC CHARGES
----------------------
   0 C :   -0.307973
   1 C :   -0.302089
   2 H :    0.144925
   3 C :   -0.300070
   4 H :    0.146590
   5 C :   -0.312594
   6 H :    0.143925
   7 C :   -0.314401
   8 H :    0.146707
   9 C :   -0.410975
  10 H :    0.123245
  11 O :    0.178981
  12 O :    0.012552
  13 O :   -0.016127
  14 O :   -0.018055
  15 O :   -0.009658
  16 O :   -0.043834
  17 H :    0.137001
  18 H :    0.120072
  19 H :    0.179541
  20 H :    0.177259
  21 H :    0.176939
  22 H :    0.177401
  23 H :    0.170637

  Mayer bond orders larger than 0.100000
B(  0-C ,  1-C ) :   0.9818 B(  0-C , 16-O ) :   0.9939 B(  0-C , 17-H ) :   0.9642
B(  0-C , 18-H ) :   0.9784 B(  1-C ,  2-H ) :   0.9545 B(  1-C ,  3-C ) :   0.9627
B(  1-C , 11-O ) :   0.9928 B(  1-C , 16-O ) :   0.1158 B(  3-C ,  4-H ) :   0.9522
B(  3-C ,  5-C ) :   0.9483 B(  3-C , 15-O ) :   1.0674 B(  5-C ,  6-H ) :   0.9696
B(  5-C ,  7-C ) :   0.9457 B(  5-C , 14-O ) :   1.0757 B(  7-C ,  8-H ) :   0.9656
B(  7-C ,  9-C ) :   0.9307 B(  7-C , 13-O ) :   1.1093 B(  9-C , 10-H ) :   0.9840
B(  9-C , 11-O ) :   1.0265 B(  9-C , 12-O ) :   1.2046 B( 12-O , 19-H ) :   0.8918
B( 13-O , 20-H ) :   0.8884 B( 14-O , 21-H ) :   0.8880 B( 15-O , 22-H ) :   0.8857
B( 16-O , 23-H ) :   0.8922

FINAL SINGLE POINT ENERGY      -687.252603149049

DIPOLE MOMENT
-------------

Method             : SCF
Type of density    : Electron Density
Multiplicity       :   1
Irrep              :   0
Energy             :  -687.2713992160490761 Eh
Relativity type    :
Basis              : AO
                                X                 Y                 Z
Electronic contribution:      1.960282721      -0.115560131      -1.319646731
Nuclear contribution   :     -0.896275408      -0.523445127       1.956905816
                        -----------------------------------------
Total Dipole Moment    :      1.064007314      -0.639005259       0.637259086
                        -----------------------------------------
Magnitude (a.u.)       :      1.395184012
Magnitude (Debye)      :      3.546275931

Rotational constants in cm-1:             0.039448             0.026521             0.017514
Rotational constants in MHz :          1182.634918           795.068086           525.053938

                             ****ORCA TERMINATED NORMALLY****
TOTAL RUN TIME: 0 days 0 hours 4 minutes 39 seconds 733 msec
