                         Program Version 6.0.0  -   RELEASE  -
|  1> ! wb97x-v def2-tzvp def2/J RIJCOSX DEFGRID2 scfconv7 GCP(DFT/TZ) printgap
|  2> %output
|  3>     printlevel normal
|  4> end
|  5> %cpcm
|  6>     smd true
|  7>     smdsolvent "water"
|  8> end
|  9> * xyz 0 1
| 10> C -2.579337752664538 -0.8637043419077046 0.32628403654320964
| 11> C -1.1506430156970198 -0.4245106525684123 0.5866302903603897
| 12> H -1.0022931883072062 -0.3694797640343316 1.678131825940187
| 13> C -0.8045937013843603 0.9279140518380222 -0.03632746310653257
| 14> H -0.9974232087883643 0.88567152367871 -1.1184125740379331
| 15> C 0.6667320926549773 1.2435056358950045 0.18878258907496978
| 16> H 0.8396155289658126 1.3790245624712756 1.2683861878130924
| 17> C 1.5420969393573127 0.10178149009665703 -0.3072974584917698
| 18> H 1.437825166845176 0.0018099144011364983 -1.3982828007442756
| 19> C 1.0890090271373323 -1.2035018780531666 0.3384673534485957
| 20> H 1.2106381815599472 -1.1617802178246144 1.4335442745491298
| 21> O -0.29119284905903686 -1.4326671438251108 0.026304586709810673
| 22> O 1.8355915904711295 -2.2539857716214473 -0.21565558525085574
| 23> O 2.891037078511195 0.41452784307455 0.04815135648227595
| 24> O 0.9492873200539891 2.4633324240323593 -0.5082916357033429
| 25> O -1.6418273071631029 1.9100575549747199 0.5817732123297485
| 26> O -2.91163871205451 -0.9046344581813901 -1.0661011156494165
| 27> H -3.264746062753055 -0.15245520008048347 0.7935106386687375
| 28> H -2.7330543063333637 -1.847027585720274 0.7910633779618509
| 29> H 1.7860872894453048 -3.010865876011637 0.3837541332073591
| 30> H 3.4655237590833994 -0.22233492708911923 -0.3973922323187296
| 31> H 1.8458905702641113 2.734064621035108 -0.27068165617457096
| 32> H -1.3935071866952693 2.768961687845963 0.21413854394409737
| 33> H -2.345272211883512 -1.5698120445155597 -1.479163189545018
| 34> *
| 35>
| 36>                          ****END OF INPUT****

CARTESIAN COORDINATES (ANGSTROEM)
---------------------------------
  C     -2.579338   -0.863704    0.326284
  C     -1.150643   -0.424511    0.586630
  H     -1.002293   -0.369480    1.678132
  C     -0.804594    0.927914   -0.036327
  H     -0.997423    0.885672   -1.118413
  C      0.666732    1.243506    0.188783
  H      0.839616    1.379025    1.268386
  C      1.542097    0.101781   -0.307297
  H      1.437825    0.001810   -1.398283
  C      1.089009   -1.203502    0.338467
  H      1.210638   -1.161780    1.433544
  O     -0.291193   -1.432667    0.026305
  O      1.835592   -2.253986   -0.215656
  O      2.891037    0.414528    0.048151
  O      0.949287    2.463332   -0.508292
  O     -1.641827    1.910058    0.581773
  O     -2.911639   -0.904634   -1.066101
  H     -3.264746   -0.152455    0.793511
  H     -2.733054   -1.847028    0.791063
  H      1.786087   -3.010866    0.383754
  H      3.465524   -0.222335   -0.397392
  H      1.845891    2.734065   -0.270682
  H     -1.393507    2.768962    0.214139
  H     -2.345272   -1.569812   -1.479163

 Total Charge           Charge          ....    0
 Multiplicity           Mult            ....    1
 Number of Electrons    NEL             ....   96
 Basis Dimension        Dim             ....  444

ORBITAL ENERGIES
----------------

  NO   OCC          E(Eh)            E(eV)
   0   2.0000     -21.692164      -590.2738
   1   2.0000     -21.690965      -590.2412
   2   2.0000     -21.683839      -590.0473
   3   2.0000     -21.681595      -589.9862
   4   2.0000     -21.680910      -589.9676
   5   2.0000     -21.677308      -589.8696
   6   2.0000     -12.151351      -330.6551
   7   2.0000     -12.103771      -329.3603
   8   2.0000     -12.102473      -329.3250
   9   2.0000     -12.101370      -329.2950
  10   2.0000     -12.100368      -329.2678
  11   2.0000     -12.091124      -329.0162
  12   2.0000      -1.722805       -46.8799
  13   2.0000      -1.690341       -45.9965
  14   2.0000      -1.686509       -45.8923
  15   2.0000      -1.681312       -45.7508
  16   2.0000      -1.678091       -45.6632
  17   2.0000      -1.675883       -45.6031
  18   2.0000      -1.333622       -36.2897
  19   2.0000      -1.319539       -35.9065
  20   2.0000      -1.233081       -33.5538
  21   2.0000      -1.197652       -32.5898
  22   2.0000      -1.166317       -31.7371
  23   2.0000      -1.120189       -30.4819
  24   2.0000      -1.086962       -29.5777
  25   2.0000      -1.067805       -29.0565
  26   2.0000      -1.045150       -28.4400
  27   2.0000      -1.040648       -28.3175
  28   2.0000      -1.035234       -28.1701
  29   2.0000      -1.020479       -27.7687
  30   2.0000      -0.997572       -27.1453
  31   2.0000      -0.988814       -26.9070
  32   2.0000      -0.973149       -26.4807
  33   2.0000      -0.971241       -26.4288
  34   2.0000      -0.965679       -26.2775
  35   2.0000      -0.946127       -25.7454
  36   2.0000      -0.943018       -25.6608
  37   2.0000      -0.927812       -25.2470
  38   2.0000      -0.925176       -25.1753
  39   2.0000      -0.908824       -24.7303
  40   2.0000      -0.899251       -24.4699
  41   2.0000      -0.880914       -23.9709
  42   2.0000      -0.843555       -22.9543
  43   2.0000      -0.835181       -22.7264
  44   2.0000      -0.811395       -22.0792
  45   2.0000      -0.798775       -21.7358
  46   2.0000      -0.797269       -21.6948
  47   2.0000      -0.769079       -20.9277
  48   0.0000      -0.233982        -6.3670
  49   0.0000      -0.191161        -5.2018
  50   0.0000      -0.170548        -4.6409
  51   0.0000      -0.148492        -4.0407
  52   0.0000      -0.123796        -3.3687

MULLIKEN ATOMIC CHARGES
-----------------------
   0 C :   -0.013255
   1 C :    0.039672
   2 H :    0.111474
   3 C :    0.092632
   4 H :    0.091870
   5 C :    0.087312
   6 H :    0.107228
   7 C :    0.077515
   8 H :    0.101971
   9 C :    0.076271
  10 H :    0.106571
  11 O :   -0.331515
  12 O :   -0.489298
  13 O :   -0.525662
  14 O :   -0.532654
  15 O :   -0.532200
  16 O :   -0.555243
  17 H :    0.129752
  18 H :    0.131760
  19 H :    0.377315
  20 H :    0.364599
  21 H :    0.363507
  22 H :    0.360680
  23 H :    0.359697
Sum of atomic charges:    0.0000000

LOEWDIN ATOMIC CHARGES
----------------------
   0 C :   -0.308150
   1 C :   -0.296310
   2 H :    0.158639
   3 C :   -0.300950
   4 H :    0.147338
   5 C :   -0.306803
   6 H :    0.153055
   7 C :   -0.311272
   8 H :    0.151251
   9 C :   -0.402601
  10 H :    0.138189
  11 O :    0.160405
  12 O :   -0.011682
  13 O :   -0.038868
  14 O :   -0.044090
  15 O :   -0.039149
  16 O :   -0.081938
  17 H :    0.137326
  18 H :    0.129851
  19 H :    0.201373
  20 H :    0.193473
  21 H :    0.191732
  22 H :    0.191107
  23 H :    0.188077

  Mayer bond orders larger than 0.100000
B(  0-C ,  1-C ) :   0.9665 B(  0-C , 16-O ) :   0.9632 B(  0-C , 17-H ) :   0.9675
B(  0-C , 18-H ) :   0.9806 B(  1-C ,  2-H ) :   0.9476 B(  1-C ,  3-C ) :   0.9741
B(  1-C , 11-O ) :   0.9674 B(  3-C ,  4-H ) :   0.9510 B(  3-C ,  5-C ) :   0.9787
B(  3-C , 15-O ) :   1.0297 B(  5-C ,  6-H ) :   0.9556 B(  5-C ,  7-C ) :   0.9703
B(  5-C , 14-O ) :   1.0482 B(  7-C ,  8-H ) :   0.9556 B(  7-C ,  9-C ) :   0.9531
B(  7-C , 13-O ) :   1.0867 B(  9-C , 10-H ) :   0.9825 B(  9-C , 11-O ) :   1.0108
B(  9-C , 12-O ) :   1.1966 B( 12-O , 19-H ) :   0.8532 B( 13-O , 20-H ) :   0.8582
B( 14-O , 21-H ) :   0.8599 B( 15-O , 22-H ) :   0.8581 B( 16-O , 23-H ) :   0.8622

FINAL SINGLE POINT ENERGY      -687.288256236960

DIPOLE MOMENT
-------------

Method             : SCF
Type of density    : Electron Density
Multiplicity       :   1
Irrep              :   0
Energy             :  -687.3070523039600630 Eh
Relativity type    :
Basis              : AO
                                X                 Y                 Z
Electronic contribution:      2.329068922      -0.372198637      -0.945833345
Nuclear contribution   :     -0.896275408      -0.523445127       1.956905816
                        -----------------------------------------
Total Dipole Moment    :      1.432793514      -0.895643764       1.011072471
                        -----------------------------------------
Magnitude (a.u.)       :      1.969096886
Magnitude (Debye)      :      5.005046528

Rotational constants in cm-1:             0.039448             0.026521             0.017514
Rotational constants in MHz :          1182.634918           795.068086           525.053938

                             ****ORCA TERMINATED NORMALLY****
TOTAL RUN TIME: 0 days 0 hours 5 minutes 13 seconds 858 msec
