                         Program Version 6.0.0  -   RELEASE  -
|  1> ! pbe def2-sv(p) def2/J RI DEFGRID1 loosescf d4 GCP(DFT/SV(P)) printgap
|  2> %output
|  3>     printlevel normal
|  4> end
|  5> * xyz 0 1
|  6> C -2.3824344577 -4.922e-05 0.0055460072
|  7> N -0.9666782365 2.33995e-05 -0.2925891059
|  8> C -0.3140628991 1.1935512618 0.2182032229
|  9> C 1.1412754875 1.2399727804 -0.2362441023
| 10> C 1.880990801 -4.23938e-05 0.2534206887
| 11> C 1.1412905589 -1.2399587563 -0.2363225361
| 12> C -0.3140063093 -1.1935095514 0.2182681322
| 13> H -2.8389077934 -0.8851592432 -0.4342583465
| 14> H -2.8389363804 0.8849857241 -0.434388193
| 15> H -2.5887205408 -0.0001134187 1.0888941947
| 16> H -0.8512021689 2.0641437551 -0.1667667504
| 17> H -0.3570535237 1.2285754429 1.3247076027
| 18> H 1.1663476637 1.2698915168 -1.3261072076
| 19> H 1.6118531496 2.1462759945 0.1473644905
| 20> H 2.9079639163 4.14997e-05 -0.1145151291
| 21> H 1.9119123526 -5.60965e-05 1.3460741379
| 22> H 1.1663399639 -1.2698131676 -1.3261778403
| 23> H 1.6118357626 -2.1463257906 0.1471959416
| 24> H -0.8513404895 -2.0639841085 -0.1665340141
| 25> H -0.3570169104 -1.2283597209 1.3246701508
| 26> *
| 27>
| 28>                          ****END OF INPUT****

CARTESIAN COORDINATES (ANGSTROEM)
---------------------------------
  C     -2.382434   -0.000049    0.005546
  N     -0.966678    0.000023   -0.292589
  C     -0.314063    1.193551    0.218203
  C      1.141275    1.239973   -0.236244
  C      1.880991   -0.000042    0.253421
  C      1.141291   -1.239959   -0.236323
  C     -0.314006   -1.193510    0.218268
  H     -2.838908   -0.885159   -0.434258
  H     -2.838936    0.884986   -0.434388
  H     -2.588721   -0.000113    1.088894
  H     -0.851202    2.064144   -0.166767
  H     -0.357054    1.228575    1.324708
  H      1.166348    1.269892   -1.326107
  H      1.611853    2.146276    0.147364
  H      2.907964    0.000041   -0.114515
  H      1.911912   -0.000056    1.346074
  H      1.166340   -1.269813   -1.326178
  H      1.611836   -2.146326    0.147196
  H     -0.851340   -2.063984   -0.166534
  H     -0.357017   -1.228360    1.324670

 Total Charge           Charge          ....    0
 Multiplicity           Mult            ....    1
 Number of Electrons    NEL             ....   56
 Basis Dimension        Dim             ....  124

ORBITAL ENERGIES
----------------

  NO   OCC          E(Eh)            E(eV)
   0   2.0000     -13.976359      -380.3161
   1   2.0000      -9.903273      -269.4818
   2   2.0000      -9.903263      -269.4815
   3   2.0000      -9.896811      -269.3059
   4   2.0000      -9.880147      -268.8525
   5   2.0000      -9.878800      -268.8158
   6   2.0000      -9.878777      -268.8152
   7   2.0000      -0.839946       -22.8561
   8   2.0000      -0.717281       -19.5182
   9   2.0000      -0.672649       -18.3037
  10   2.0000      -0.616606       -16.7787
  11   2.0000      -0.554755       -15.0957
  12   2.0000      -0.540014       -14.6945
  13   2.0000      -0.489742       -13.3266
  14   2.0000      -0.439441       -11.9578
  15   2.0000      -0.412521       -11.2253
  16   2.0000      -0.400030       -10.8854
  17   2.0000      -0.394632       -10.7385
  18   2.0000      -0.374065       -10.1788
  19   2.0000      -0.358871        -9.7654
  20   2.0000      -0.341240        -9.2856
  21   2.0000      -0.338242        -9.2040
  22   2.0000      -0.314304        -8.5527
  23   2.0000      -0.302219        -8.2238
  24   2.0000      -0.285168        -7.7598
  25   2.0000      -0.269102        -7.3226
  26   2.0000      -0.269068        -7.3217
  27   2.0000      -0.170438        -4.6379
  28   0.0000       0.036092         0.9821
  29   0.0000       0.056406         1.5349
  30   0.0000       0.065251         1.7756
  31   0.0000       0.068741         1.8705
  32   0.0000       0.102756         2.7961

MULLIKEN ATOMIC CHARGES
-----------------------
   0 C :   -0.147045
   1 N :   -0.308694
   2 C :   -0.065270
   3 C :   -0.127660
   4 C :   -0.171985
   5 C :   -0.127606
   6 C :   -0.065212
   7 H :    0.101155
   8 H :    0.101160
   9 H :    0.065250
  10 H :    0.082005
  11 H :    0.046234
  12 H :    0.080440
  13 H :    0.083018
  14 H :    0.089079
  15 H :    0.073457
  16 H :    0.080444
  17 H :    0.083017
  18 H :    0.081986
  19 H :    0.046227
Sum of atomic charges:    0.0000000

LOEWDIN ATOMIC CHARGES
----------------------
   0 C :   -0.256794
   1 N :   -0.149029
   2 C :   -0.154728
   3 C :   -0.231629
   4 C :   -0.229697
   5 C :   -0.231624
   6 C :   -0.154723
   7 H :    0.112686
   8 H :    0.112692
   9 H :    0.088122
  10 H :    0.111038
  11 H :    0.085569
  12 H :    0.118930
  13 H :    0.117409
  14 H :    0.116058
  15 H :    0.112746
  16 H :    0.118935
  17 H :    0.117408
  18 H :    0.111040
  19 H :    0.085593

  Mayer bond orders larger than 0.100000
B(  0-C ,  1-N ) :   1.0451 B(  0-C ,  7-H ) :   0.9556 B(  0-C ,  8-H ) :   0.9556
B(  0-C ,  9-H ) :   0.9243 B(  1-N ,  2-C ) :   1.0323 B(  1-N ,  6-C ) :   1.0323
B(  2-C ,  3-C ) :   1.1378 B(  2-C , 10-H ) :   0.9229 B(  2-C , 11-H ) :   0.8886
B(  3-C ,  4-C ) :   1.1315 B(  3-C , 12-H ) :   0.9079 B(  3-C , 13-H ) :   0.9172
B(  4-C ,  5-C ) :   1.1315 B(  4-C , 14-H ) :   0.9251 B(  4-C , 15-H ) :   0.9161
B(  5-C ,  6-C ) :   1.1378 B(  5-C , 16-H ) :   0.9079 B(  5-C , 17-H ) :   0.9172
B(  6-C , 18-H ) :   0.9230 B(  6-C , 19-H ) :   0.8886

Dispersion correction           -0.017488079
FINAL SINGLE POINT ENERGY      -290.497552685733

DIPOLE MOMENT
-------------

Method             : SCF
Type of density    : Electron Density
Multiplicity       :   1
Irrep              :   0
Energy             :  -290.5702530263246786 Eh
Relativity type    :
Basis              : AO
                                X                 Y                 Z
Electronic contribution:      0.278156137      -0.000184695      -1.191160219
Nuclear contribution   :     -0.293233502       0.000096184       1.321360215
                        -----------------------------------------
Total Dipole Moment    :     -0.015077365      -0.000088511       0.130199996
                        -----------------------------------------
Magnitude (a.u.)       :      0.131070110
Magnitude (Debye)      :      0.333153743

Rotational constants in cm-1:             0.150574             0.077549             0.056337
Rotational constants in MHz :          4514.081127          2324.847241          1688.933423

                             ****ORCA TERMINATED NORMALLY****
TOTAL RUN TIME: 0 days 0 hours 0 minutes 7 seconds 237 msec
