                         Program Version 6.0.0  -   RELEASE  -
|  1> ! r2scan-3c def2/J RI DEFGRID2 scfconv6 printgap
|  2> %output
|  3>     printlevel normal
|  4> end
|  5> * xyz 0 1
|  6> C 2.0693665974 -1.0295366776 0.000156937
|  7> C 2.3305047982 0.3407996386 -1.90514e-05
|  8> C 1.3012162478 1.2554502799 1.05903e-05
|  9> C -0.0283529156 0.8243659922 -5.77933e-05
| 10> C -0.3002753594 -0.5636968869 -0.0002777514
| 11> C 0.7699130976 -1.4728339326 -0.0001721194
| 12> C -1.6566874009 -1.0459508415 -0.0001081517
| 13> O -2.6621614144 -0.3425249865 0.0001717699
| 14> O -0.997083829 1.7443620632 0.0001190659
| 15> H 2.8854140197 -1.7334357117 0.0009733088
| 16> H 3.3509446537 0.690584188 -0.0005231724
| 17> H 1.4888419348 2.3172202427 9.49056e-05
| 18> H 0.5469922138 -2.528927577 0.0015127467
| 19> H -1.7628946907 -2.1433161525 -0.0002633311
| 20> H -1.8767166013 1.3009549683 -0.0008421219
| 21> *
| 22>
| 23>                          ****END OF INPUT****

CARTESIAN COORDINATES (ANGSTROEM)
---------------------------------
  C      2.069367   -1.029537    0.000157
  C      2.330505    0.340800   -0.000019
  C      1.301216    1.255450    0.000011
  C     -0.028353    0.824366   -0.000058
  C     -0.300275   -0.563697   -0.000278
  C      0.769913   -1.472834   -0.000172
  C     -1.656687   -1.045951   -0.000108
  O     -2.662161   -0.342525    0.000172
  O     -0.997084    1.744362    0.000119
  H      2.885414   -1.733436    0.000973
  H      3.350945    0.690584   -0.000523
  H      1.488842    2.317220    0.000095
  H      0.546992   -2.528928    0.001513
  H     -1.762895   -2.143316   -0.000263
  H     -1.876717    1.300955   -0.000842

 Total Charge           Charge          ....    0
 Multiplicity           Mult            ....    1
 Number of Electrons    NEL             ....   64
 Basis Dimension        Dim             ....  211

ORBITAL ENERGIES
----------------

  NO   OCC          E(Eh)            E(eV)
   0   2.0000     -18.990511      -516.7581
   1   2.0000     -18.961463      -515.9676
   2   2.0000     -10.129747      -275.6444
   3   2.0000     -10.123030      -275.4616
   4   2.0000     -10.062943      -273.8266
   5   2.0000     -10.061624      -273.7907
   6   2.0000     -10.058681      -273.7106
   7   2.0000     -10.048414      -273.4313
   8   2.0000     -10.047867      -273.4164
   9   2.0000      -1.046234       -28.4695
  10   2.0000      -1.016243       -27.6534
  11   2.0000      -0.843975       -22.9657
  12   2.0000      -0.755632       -20.5618
  13   2.0000      -0.729278       -19.8447
  14   2.0000      -0.639235       -17.3945
  15   2.0000      -0.597133       -16.2488
  16   2.0000      -0.580074       -15.7846
  17   2.0000      -0.508503       -13.8371
  18   2.0000      -0.496803       -13.5187
  19   2.0000      -0.453857       -12.3501
  20   2.0000      -0.441045       -12.0014
  21   2.0000      -0.417710       -11.3665
  22   2.0000      -0.413410       -11.2495
  23   2.0000      -0.412292       -11.2190
  24   2.0000      -0.370573       -10.0838
  25   2.0000      -0.368206       -10.0194
  26   2.0000      -0.357816        -9.7367
  27   2.0000      -0.331354        -9.0166
  28   2.0000      -0.327933        -8.9235
  29   2.0000      -0.261821        -7.1245
  30   2.0000      -0.240786        -6.5521
  31   2.0000      -0.224855        -6.1186
  32   0.0000      -0.102174        -2.7803
  33   0.0000      -0.040312        -1.0970
  34   0.0000      -0.001146        -0.0312
  35   0.0000       0.072248         1.9660
  36   0.0000       0.080312         2.1854

MULLIKEN ATOMIC CHARGES
-----------------------
   0 C :   -0.186273
   1 C :   -0.079509
   2 C :   -0.281748
   3 C :    0.323256
   4 C :    0.063497
   5 C :   -0.172801
   6 C :    0.032698
   7 O :   -0.418575
   8 O :   -0.378673
   9 H :    0.149813
  10 H :    0.152657
  11 H :    0.162608
  12 H :    0.152341
  13 H :    0.113221
  14 H :    0.367488
Sum of atomic charges:    0.0000000

LOEWDIN ATOMIC CHARGES
----------------------
   0 C :   -0.188428
   1 C :   -0.122087
   2 C :   -0.137028
   3 C :    0.235741
   4 C :   -0.103488
   5 C :   -0.119639
   6 C :    0.221373
   7 O :   -0.505915
   8 O :   -0.454082
   9 H :    0.169997
  10 H :    0.172036
  11 H :    0.183899
  12 H :    0.174060
  13 H :    0.165890
  14 H :    0.307670

  Mayer bond orders larger than 0.100000
B(  0-C ,  1-C ) :   1.3506 B(  0-C ,  5-C ) :   1.4846 B(  0-C ,  9-H ) :   0.9475
B(  1-C ,  2-C ) :   1.4227 B(  1-C , 10-H ) :   0.9478 B(  2-C ,  3-C ) :   1.3862
B(  2-C , 11-H ) :   0.9449 B(  3-C ,  4-C ) :   1.3267 B(  3-C ,  8-O ) :   1.0971
B(  4-C ,  5-C ) :   1.2461 B(  4-C ,  6-C ) :   0.9553 B(  4-C , 13-H ) :  -0.1174
B(  5-C , 12-H ) :   0.9297 B(  6-C ,  7-O ) :   1.8233 B(  6-C , 13-H ) :   1.0442
B(  8-O , 14-H ) :   0.7702

Dispersion correction           -0.005049597
FINAL SINGLE POINT ENERGY      -420.723960570032

DIPOLE MOMENT
-------------

Method             : SCF
Type of density    : Electron Density
Multiplicity       :   1
Irrep              :   0
Energy             :  -420.7250616489802724 Eh
Relativity type    :
Basis              : AO
                                X                 Y                 Z
Electronic contribution:     -3.269611354       1.385866715      -0.001006564
Nuclear contribution   :      4.291924804      -1.946495988       0.000897769
                        -----------------------------------------
Total Dipole Moment    :      1.022313450      -0.560629273      -0.000108796
                        -----------------------------------------
Magnitude (a.u.)       :      1.165945961
Magnitude (Debye)      :      2.963599113

Rotational constants in cm-1:             0.107720             0.050111             0.034201
Rotational constants in MHz :          3229.361482          1502.290959          1025.316367

                             ****ORCA TERMINATED NORMALLY****
TOTAL RUN TIME: 0 days 0 hours 0 minutes 27 seconds 231 msec
