                         Program Version 6.0.0  -   RELEASE  -
|  1> ! pbe def2-sv(p) def2/J RI DEFGRID1 loosescf d4 GCP(DFT/SV(P)) printgap
|  2> %output
|  3>     printlevel normal
|  4> end
|  5> * xyz 0 1
|  6> C -1.8667861727 -0.5724668902 -0.8554366739
|  7> C -1.1960390973 -0.1193880582 0.4463746619
|  8> H -1.9567074479 -0.130150522 1.2355147131
|  9> C -0.6160110069 1.3006537597 0.3467869953
| 10> H -1.3533340062 1.954380147 -0.1290387376
| 11> C 0.6690264605 1.3196174233 -0.5029930739
| 12> H 1.1235827291 2.3155236896 -0.3651458969
| 13> C 1.6668995562 0.2675715288 0.0261219499
| 14> H 2.451940524 0.0992398593 -0.7247493426
| 15> C 1.0055383002 -1.1023648179 0.2604769051
| 16> H 1.6492044754 -1.6545275992 0.9662687987
| 17> O -0.2203142411 -1.0377276602 0.9335978107
| 18> O 0.9350302831 -1.7637721778 -0.9647622252
| 19> O 2.2184457628 0.665148891 1.2589293235
| 20> O 0.3214913379 1.1235532395 -1.8470040534
| 21> O -0.3808102594 1.8464351193 1.6194791115
| 22> O -2.6186120605 -1.7374688637 -0.5859583584
| 23> H -1.1084806814 -0.7578138372 -1.6212261613
| 24> H -2.5204917956 0.2408128609 -1.1932315898
| 25> H 0.5618068568 -2.648004948 -0.8300391236
| 26> H 2.8114735609 1.4200404404 1.1285986465
| 27> H 1.1085666319 1.1979516233 -2.4064621426
| 28> H 0.2707930937 1.2911285571 2.0800860184
| 29> H -3.0694735119 -2.0137119993 -1.3960181651
| 30> *
| 31>
| 32>                          ****END OF INPUT****

CARTESIAN COORDINATES (ANGSTROEM)
---------------------------------
  C     -1.866786   -0.572467   -0.855437
  C     -1.196039   -0.119388    0.446375
  H     -1.956707   -0.130151    1.235515
  C     -0.616011    1.300654    0.346787
  H     -1.353334    1.954380   -0.129039
  C      0.669026    1.319617   -0.502993
  H      1.123583    2.315524   -0.365146
  C      1.666900    0.267572    0.026122
  H      2.451941    0.099240   -0.724749
  C      1.005538   -1.102365    0.260477
  H      1.649204   -1.654528    0.966269
  O     -0.220314   -1.037728    0.933598
  O      0.935030   -1.763772   -0.964762
  O      2.218446    0.665149    1.258929
  O      0.321491    1.123553   -1.847004
  O     -0.380810    1.846435    1.619479
  O     -2.618612   -1.737469   -0.585958
  H     -1.108481   -0.757814   -1.621226
  H     -2.520492    0.240813   -1.193232
  H      0.561807   -2.648005   -0.830039
  H      2.811474    1.420040    1.128599
  H      1.108567    1.197952   -2.406462
  H      0.270793    1.291129    2.080086
  H     -3.069474   -2.013712   -1.396018

 Total Charge           Charge          ....    0
 Multiplicity           Mult            ....    1
 Number of Electrons    NEL             ....   96
 Basis Dimension        Dim             ....  192

ORBITAL ENERGIES
----------------

  NO   OCC          E(Eh)            E(eV)
   0   2.0000     -18.773546      -510.8542
   1   2.0000     -18.762095      -510.5426
   2   2.0000     -18.759662      -510.4764
   3   2.0000     -18.758012      -510.4315
   4   2.0000     -18.735072      -509.8072
   5   2.0000     -18.734737      -509.7981
   6   2.0000      -9.983847      -271.6743
   7   2.0000      -9.950321      -270.7620
   8   2.0000      -9.945427      -270.6288
   9   2.0000      -9.935765      -270.3659
  10   2.0000      -9.930208      -270.2147
  11   2.0000      -9.913681      -269.7650
  12   2.0000      -0.977088       -26.5879
  13   2.0000      -0.948093       -25.7989
  14   2.0000      -0.937179       -25.5019
  15   2.0000      -0.919479       -25.0203
  16   2.0000      -0.909845       -24.7581
  17   2.0000      -0.900009       -24.4905
  18   2.0000      -0.696528       -18.9535
  19   2.0000      -0.690107       -18.7788
  20   2.0000      -0.617281       -16.7971
  21   2.0000      -0.580099       -15.7853
  22   2.0000      -0.563581       -15.3358
  23   2.0000      -0.525027       -14.2867
  24   2.0000      -0.498828       -13.5738
  25   2.0000      -0.479753       -13.0547
  26   2.0000      -0.465018       -12.6538
  27   2.0000      -0.463209       -12.6046
  28   2.0000      -0.440991       -12.0000
  29   2.0000      -0.419423       -11.4131
  30   2.0000      -0.406995       -11.0749
  31   2.0000      -0.393390       -10.7047
  32   2.0000      -0.384145       -10.4531
  33   2.0000      -0.371043       -10.0966
  34   2.0000      -0.355433        -9.6718
  35   2.0000      -0.344402        -9.3716
  36   2.0000      -0.333657        -9.0793
  37   2.0000      -0.325067        -8.8455
  38   2.0000      -0.296655        -8.0724
  39   2.0000      -0.285551        -7.7702
  40   2.0000      -0.278300        -7.5729
  41   2.0000      -0.256987        -6.9930
  42   2.0000      -0.253558        -6.8997
  43   2.0000      -0.236970        -6.4483
  44   2.0000      -0.230061        -6.2603
  45   2.0000      -0.214100        -5.8259
  46   2.0000      -0.206040        -5.6066
  47   2.0000      -0.197055        -5.3621
  48   0.0000       0.006516         0.1773
  49   0.0000       0.015326         0.4170
  50   0.0000       0.030016         0.8168
  51   0.0000       0.046738         1.2718
  52   0.0000       0.064933         1.7669

MULLIKEN ATOMIC CHARGES
-----------------------
   0 C :    0.005841
   1 C :    0.032703
   2 H :    0.079962
   3 C :    0.067699
   4 H :    0.077471
   5 C :    0.051423
   6 H :    0.052594
   7 C :   -0.010911
   8 H :    0.064372
   9 C :    0.221384
  10 H :    0.068065
  11 O :   -0.314571
  12 O :   -0.399623
  13 O :   -0.413212
  14 O :   -0.397033
  15 O :   -0.431045
  16 O :   -0.437778
  17 H :    0.103007
  18 H :    0.061654
  19 H :    0.307769
  20 H :    0.310400
  21 H :    0.303816
  22 H :    0.300039
  23 H :    0.295971
Sum of atomic charges:    0.0000000

LOEWDIN ATOMIC CHARGES
----------------------
   0 C :   -0.152352
   1 C :   -0.058984
   2 H :    0.123271
   3 C :   -0.061333
   4 H :    0.120185
   5 C :   -0.081640
   6 H :    0.094400
   7 C :   -0.090278
   8 H :    0.103904
   9 C :    0.001177
  10 H :    0.100274
  11 O :   -0.139550
  12 O :   -0.310166
  13 O :   -0.304279
  14 O :   -0.303495
  15 O :   -0.319002
  16 O :   -0.349949
  17 H :    0.105045
  18 H :    0.096947
  19 H :    0.289949
  20 H :    0.292008
  21 H :    0.288046
  22 H :    0.272490
  23 H :    0.283334

  Mayer bond orders larger than 0.100000
B(  0-C ,  1-C ) :   1.0628 B(  0-C , 16-O ) :   1.0802 B(  0-C , 17-H ) :   0.8805
B(  0-C , 18-H ) :   0.9114 B(  1-C ,  2-H ) :   0.8945 B(  1-C ,  3-C ) :   1.0182
B(  1-C , 11-O ) :   0.9827 B(  3-C ,  4-H ) :   0.8900 B(  3-C ,  5-C ) :   0.9676
B(  3-C , 15-O ) :   1.0641 B(  5-C ,  6-H ) :   0.9006 B(  5-C ,  7-C ) :   0.9635
B(  5-C , 14-O ) :   1.0703 B(  7-C ,  8-H ) :   0.8917 B(  7-C ,  9-C ) :   0.9868
B(  7-C , 13-O ) :   1.0428 B(  9-C , 10-H ) :   0.9021 B(  9-C , 11-O ) :   1.0830
B(  9-C , 12-O ) :   1.1178 B( 12-O , 19-H ) :   0.8351 B( 13-O , 20-H ) :   0.8404
B( 14-O , 21-H ) :   0.8415 B( 15-O , 22-H ) :   0.8201 B( 16-O , 23-H ) :   0.8546

Dispersion correction           -0.025809788
FINAL SINGLE POINT ENERGY      -685.690380924049

DIPOLE MOMENT
-------------

Method             : SCF
Type of density    : Electron Density
Multiplicity       :   1
Irrep              :   0
Energy             :  -685.8205741507406401 Eh
Relativity type    :
Basis              : AO
                                X                 Y                 Z
Electronic contribution:      1.033262482      -1.147868927       1.943530491
Nuclear contribution   :     -0.025414337       1.220180319      -3.048021956
                        -----------------------------------------
Total Dipole Moment    :      1.007848145       0.072311392      -1.104491465
                        -----------------------------------------
Magnitude (a.u.)       :      1.496959658
Magnitude (Debye)      :      3.804969064

Rotational constants in cm-1:             0.041636             0.027875             0.024763
Rotational constants in MHz :          1248.211177           835.661711           742.375455

                             ****ORCA TERMINATED NORMALLY****
TOTAL RUN TIME: 0 days 0 hours 0 minutes 12 seconds 285 msec
