                         Program Version 6.0.0  -   RELEASE  -
|  1> ! r2scan-3c def2/J RI DEFGRID2 scfconv6 printgap
|  2> %output
|  3>     printlevel normal
|  4> end
|  5> * xyz 0 1
|  6> C -2.0050867292 -0.8654467932 -0.629877913
|  7> C -1.4226574129 -0.0808067602 0.545796496
|  8> C -0.0196655628 0.3905128773 0.2591612754
|  9> O 0.3416615118 1.548784185 0.3136194688
| 10> O 0.7820209493 -0.6176406917 -0.0548267302
| 11> C 2.1528660125 -0.3504401462 -0.3631001759
| 12> H -2.0548815309 -0.2390670623 -1.5171582861
| 13> H -1.3872702092 -1.7318005956 -0.8476473639
| 14> H -3.0084046432 -1.1997776114 -0.3841857718
| 15> H -1.3822958437 -0.7227502898 1.427244757
| 16> H -2.030716728 0.7952768122 0.7704195976
| 17> H 2.3179004069 -0.5963925767 -1.410845471
| 18> H 2.7590505979 -0.9890681625 0.2757814622
| 19> H 2.3759323052 0.7013580575 -0.1810474968
| 20> *
| 21>
| 22>                          ****END OF INPUT****

CARTESIAN COORDINATES (ANGSTROEM)
---------------------------------
  C     -2.005087   -0.865447   -0.629878
  C     -1.422657   -0.080807    0.545796
  C     -0.019666    0.390513    0.259161
  O      0.341662    1.548784    0.313619
  O      0.782021   -0.617641   -0.054827
  C      2.152866   -0.350440   -0.363100
  H     -2.054882   -0.239067   -1.517158
  H     -1.387270   -1.731801   -0.847647
  H     -3.008405   -1.199778   -0.384186
  H     -1.382296   -0.722750    1.427245
  H     -2.030717    0.795277    0.770420
  H      2.317900   -0.596393   -1.410845
  H      2.759051   -0.989068    0.275781
  H      2.375932    0.701358   -0.181047

 Total Charge           Charge          ....    0
 Multiplicity           Mult            ....    1
 Number of Electrons    NEL             ....   48
 Basis Dimension        Dim             ....  164

ORBITAL ENERGIES
----------------

  NO   OCC          E(Eh)            E(eV)
   0   2.0000     -19.000059      -517.0179
   1   2.0000     -18.928333      -515.0661
   2   2.0000     -10.153564      -276.2925
   3   2.0000     -10.086054      -274.4555
   4   2.0000     -10.045152      -273.3425
   5   2.0000     -10.030299      -272.9383
   6   2.0000      -1.073815       -29.2200
   7   2.0000      -0.976072       -26.5603
   8   2.0000      -0.762456       -20.7475
   9   2.0000      -0.695194       -18.9172
  10   2.0000      -0.614954       -16.7338
  11   2.0000      -0.535222       -14.5641
  12   2.0000      -0.470876       -12.8132
  13   2.0000      -0.455652       -12.3989
  14   2.0000      -0.443569       -12.0701
  15   2.0000      -0.413704       -11.2575
  16   2.0000      -0.396451       -10.7880
  17   2.0000      -0.379921       -10.3382
  18   2.0000      -0.351532        -9.5657
  19   2.0000      -0.336486        -9.1563
  20   2.0000      -0.325871        -8.8674
  21   2.0000      -0.314793        -8.5659
  22   2.0000      -0.272594        -7.4177
  23   2.0000      -0.235155        -6.3989
  24   0.0000      -0.014847        -0.4040
  25   0.0000       0.065078         1.7709
  26   0.0000       0.095547         2.6000
  27   0.0000       0.122969         3.3462
  28   0.0000       0.125305         3.4097

MULLIKEN ATOMIC CHARGES
-----------------------
   0 C :   -0.465196
   1 C :   -0.291551
   2 C :    0.410407
   3 O :   -0.434070
   4 O :   -0.194712
   5 C :   -0.298001
   6 H :    0.150304
   7 H :    0.162869
   8 H :    0.149618
   9 H :    0.156625
  10 H :    0.167463
  11 H :    0.148062
  12 H :    0.147608
  13 H :    0.190575
Sum of atomic charges:   -0.0000000

LOEWDIN ATOMIC CHARGES
----------------------
   0 C :   -0.395746
   1 C :   -0.234976
   2 C :    0.356985
   3 O :   -0.437712
   4 O :   -0.606667
   5 C :   -0.045065
   6 H :    0.156261
   7 H :    0.162690
   8 H :    0.152236
   9 H :    0.176708
  10 H :    0.175181
  11 H :    0.172643
  12 H :    0.173717
  13 H :    0.193745

  Mayer bond orders larger than 0.100000
B(  0-C ,  1-C ) :   0.8912 B(  0-C ,  6-H ) :   0.9742 B(  0-C ,  7-H ) :   0.9745
B(  0-C ,  8-H ) :   0.9708 B(  1-C ,  2-C ) :   0.9953 B(  1-C ,  9-H ) :   0.9455
B(  1-C , 10-H ) :   0.9834 B(  2-C ,  3-O ) :   1.8601 B(  2-C ,  4-O ) :   1.0435
B(  4-O ,  5-C ) :   0.8396 B(  5-C , 11-H ) :   0.9626 B(  5-C , 12-H ) :   0.9664
B(  5-C , 13-H ) :   0.9681

Dispersion correction           -0.003006364
FINAL SINGLE POINT ENERGY      -307.629827944077

DIPOLE MOMENT
-------------

Method             : SCF
Type of density    : Electron Density
Multiplicity       :   1
Irrep              :   0
Energy             :  -307.6363366514874542 Eh
Relativity type    :
Basis              : AO
                                X                 Y                 Z
Electronic contribution:      2.275429596       2.877456913       1.605269385
Nuclear contribution   :     -2.244949578      -3.722182380      -1.748136794
                        -----------------------------------------
Total Dipole Moment    :      0.030480019      -0.844725466      -0.142867409
                        -----------------------------------------
Magnitude (a.u.)       :      0.857263811
Magnitude (Debye)      :      2.178991440

Rotational constants in cm-1:             0.205116             0.086416             0.066795
Rotational constants in MHz :          6149.225490          2590.699995          2002.465593

                             ****ORCA TERMINATED NORMALLY****
TOTAL RUN TIME: 0 days 0 hours 0 minutes 14 seconds 212 msec
