                         Program Version 6.0.0  -   RELEASE  -
|  1> ! r2scan-3c def2/J RI DEFGRID2 scfconv6 printgap
|  2> %output
|  3>     printlevel normal
|  4> end
|  5> %cpcm
|  6>     smd true
|  7>     smdsolvent "water"
|  8> end
|  9> * xyz 0 1
| 10> C -2.0050867292 -0.8654467932 -0.629877913
| 11> C -1.4226574129 -0.0808067602 0.545796496
| 12> C -0.0196655628 0.3905128773 0.2591612754
| 13> O 0.3416615118 1.548784185 0.3136194688
| 14> O 0.7820209493 -0.6176406917 -0.0548267302
| 15> C 2.1528660125 -0.3504401462 -0.3631001759
| 16> H -2.0548815309 -0.2390670623 -1.5171582861
| 17> H -1.3872702092 -1.7318005956 -0.8476473639
| 18> H -3.0084046432 -1.1997776114 -0.3841857718
| 19> H -1.3822958437 -0.7227502898 1.427244757
| 20> H -2.030716728 0.7952768122 0.7704195976
| 21> H 2.3179004069 -0.5963925767 -1.410845471
| 22> H 2.7590505979 -0.9890681625 0.2757814622
| 23> H 2.3759323052 0.7013580575 -0.1810474968
| 24> *
| 25>
| 26>                          ****END OF INPUT****

CARTESIAN COORDINATES (ANGSTROEM)
---------------------------------
  C     -2.005087   -0.865447   -0.629878
  C     -1.422657   -0.080807    0.545796
  C     -0.019666    0.390513    0.259161
  O      0.341662    1.548784    0.313619
  O      0.782021   -0.617641   -0.054827
  C      2.152866   -0.350440   -0.363100
  H     -2.054882   -0.239067   -1.517158
  H     -1.387270   -1.731801   -0.847647
  H     -3.008405   -1.199778   -0.384186
  H     -1.382296   -0.722750    1.427245
  H     -2.030717    0.795277    0.770420
  H      2.317900   -0.596393   -1.410845
  H      2.759051   -0.989068    0.275781
  H      2.375932    0.701358   -0.181047

 Total Charge           Charge          ....    0
 Multiplicity           Mult            ....    1
 Number of Electrons    NEL             ....   48
 Basis Dimension        Dim             ....  164

ORBITAL ENERGIES
----------------

  NO   OCC          E(Eh)            E(eV)
   0   2.0000     -19.004141      -517.1290
   1   2.0000     -18.942913      -515.4629
   2   2.0000     -10.162783      -276.5434
   3   2.0000     -10.075198      -274.1601
   4   2.0000     -10.038079      -273.1500
   5   2.0000     -10.019973      -272.6573
   6   2.0000      -1.079391       -29.3717
   7   2.0000      -0.988698       -26.9038
   8   2.0000      -0.756888       -20.5960
   9   2.0000      -0.688268       -18.7287
  10   2.0000      -0.607674       -16.5356
  11   2.0000      -0.532174       -14.4812
  12   2.0000      -0.469182       -12.7671
  13   2.0000      -0.457712       -12.4550
  14   2.0000      -0.449691       -12.2367
  15   2.0000      -0.411123       -11.1872
  16   2.0000      -0.388474       -10.5709
  17   2.0000      -0.377966       -10.2850
  18   2.0000      -0.347069        -9.4442
  19   2.0000      -0.329464        -8.9652
  20   2.0000      -0.321528        -8.7492
  21   2.0000      -0.313929        -8.5424
  22   2.0000      -0.278306        -7.5731
  23   2.0000      -0.249829        -6.7982
  24   0.0000      -0.021710        -0.5908
  25   0.0000       0.071358         1.9418
  26   0.0000       0.103066         2.8046
  27   0.0000       0.133979         3.6457
  28   0.0000       0.135954         3.6995

MULLIKEN ATOMIC CHARGES
-----------------------
   0 C :   -0.493829
   1 C :   -0.304582
   2 C :    0.447364
   3 O :   -0.520271
   4 O :   -0.209554
   5 C :   -0.311974
   6 H :    0.163906
   7 H :    0.166508
   8 H :    0.167813
   9 H :    0.186544
  10 H :    0.173229
  11 H :    0.175561
  12 H :    0.174487
  13 H :    0.184798
Sum of atomic charges:   -0.0000000

LOEWDIN ATOMIC CHARGES
----------------------
   0 C :   -0.397533
   1 C :   -0.232751
   2 C :    0.366716
   3 O :   -0.500135
   4 O :   -0.606955
   5 C :   -0.039579
   6 H :    0.160106
   7 H :    0.163250
   8 H :    0.159074
   9 H :    0.188494
  10 H :    0.178314
  11 H :    0.183835
  12 H :    0.185119
  13 H :    0.192045

  Mayer bond orders larger than 0.100000
B(  0-C ,  1-C ) :   0.8815 B(  0-C ,  6-H ) :   0.9712 B(  0-C ,  7-H ) :   0.9729
B(  0-C ,  8-H ) :   0.9662 B(  1-C ,  2-C ) :   0.9940 B(  1-C ,  9-H ) :   0.9353
B(  1-C , 10-H ) :   0.9788 B(  2-C ,  3-O ) :   1.7913 B(  2-C ,  4-O ) :   1.0742
B(  4-O ,  5-C ) :   0.8269 B(  5-C , 11-H ) :   0.9536 B(  5-C , 12-H ) :   0.9571
B(  5-C , 13-H ) :   0.9649

Dispersion correction           -0.003006364
FINAL SINGLE POINT ENERGY      -307.634256119013

DIPOLE MOMENT
-------------

Method             : SCF
Type of density    : Electron Density
Multiplicity       :   1
Irrep              :   0
Energy             :  -307.6407648264229238 Eh
Relativity type    :
Basis              : AO
                                X                 Y                 Z
Electronic contribution:      2.262900148       2.537473670       1.568494600
Nuclear contribution   :     -2.244949578      -3.722182380      -1.748136794
                        -----------------------------------------
Total Dipole Moment    :      0.017950570      -1.184708709      -0.179642194
                        -----------------------------------------
Magnitude (a.u.)       :      1.198385692
Magnitude (Debye)      :      3.046054355

Rotational constants in cm-1:             0.205116             0.086416             0.066795
Rotational constants in MHz :          6149.225490          2590.699995          2002.465593

                             ****ORCA TERMINATED NORMALLY****
TOTAL RUN TIME: 0 days 0 hours 0 minutes 18 seconds 447 msec
