                         Program Version 6.0.0  -   RELEASE  -
|  1> ! wb97x-v def2-tzvp def2/J RIJCOSX DEFGRID2 scfconv7 GCP(DFT/TZ) printgap
|  2> %output
|  3>     printlevel normal
|  4> end
|  5> * xyz 0 1
|  6> C -3.440614731733986 0.577055396955047 -0.09877033617938692
|  7> C -1.9470740935522783 0.468124460757751 -0.02340639634062523
|  8> C -1.1222120280314587 1.3541696889731536 -0.5929062938761249
|  9> C 0.37331525699384915 1.2598432114867906 -0.5869819825546272
| 10> C 0.8728320351710663 -0.1319751456114087 -0.15795412691182123
| 11> H 0.6346625958374543 -0.8243456321868394 -0.9804586915385204
| 12> C 0.08324894571285894 -0.5713470887879698 1.0705677519894763
| 13> C -1.4038011249165063 -0.7001098885178242 0.7579435218452103
| 14> H -1.9620644575016455 -0.7679650994872519 1.7040169296089045
| 15> O -1.682914295837194 -1.9018461618255191 -0.014223710979630969
| 16> C 2.3759234060435106 -0.14291333120499156 0.006276318463754384
| 17> C 2.9881369555099138 -0.3648624020696892 1.1742904853616323
| 18> C 3.162581143385829 0.12940942158190397 -1.2456427911143895
| 19> H -3.8786157652503643 0.6384521875532989 0.9054361668521442
| 20> H -3.876218233146805 -0.30833966836506715 -0.5770276863592868
| 21> H -3.7489474106711924 1.4586838158708653 -0.667320661921384
| 22> H -1.5506862449969367 2.213092029398008 -1.1092079449108443
| 23> H 0.7465527624845305 1.5100600589200948 -1.5865663721436647
| 24> H 0.7911175273218727 2.0221347190155345 0.0896467465837978
| 25> H 0.44438255375968255 -1.5327413997298935 1.4544380141777886
| 26> H 0.2056249813981532 0.16697758246777317 1.874539888481286
| 27> H -1.4897603094507814 -2.653558439745207 0.5613125049283717
| 28> H 4.073145146033058 -0.3589511121674799 1.2407574928627534
| 29> H 2.4412939359378054 -0.5552022424425247 2.0920830242846726
| 30> H 3.016681140590163 1.1607113216333154 -1.5885739584962113
| 31> H 4.23264763500516 -0.024830335304848457 -1.0856915854115896
| 32> H 2.8298795604402787 -0.5221203195972689 -2.0627509652926426
| 33> *
| 34>
| 35>                          ****END OF INPUT****

CARTESIAN COORDINATES (ANGSTROEM)
---------------------------------
  C     -3.440615    0.577055   -0.098770
  C     -1.947074    0.468124   -0.023406
  C     -1.122212    1.354170   -0.592906
  C      0.373315    1.259843   -0.586982
  C      0.872832   -0.131975   -0.157954
  H      0.634663   -0.824346   -0.980459
  C      0.083249   -0.571347    1.070568
  C     -1.403801   -0.700110    0.757944
  H     -1.962064   -0.767965    1.704017
  O     -1.682914   -1.901846   -0.014224
  C      2.375923   -0.142913    0.006276
  C      2.988137   -0.364862    1.174290
  C      3.162581    0.129409   -1.245643
  H     -3.878616    0.638452    0.905436
  H     -3.876218   -0.308340   -0.577028
  H     -3.748947    1.458684   -0.667321
  H     -1.550686    2.213092   -1.109208
  H      0.746553    1.510060   -1.586566
  H      0.791118    2.022135    0.089647
  H      0.444383   -1.532741    1.454438
  H      0.205625    0.166978    1.874540
  H     -1.489760   -2.653558    0.561313
  H      4.073145   -0.358951    1.240757
  H      2.441294   -0.555202    2.092083
  H      3.016681    1.160711   -1.588574
  H      4.232648   -0.024830   -1.085692
  H      2.829880   -0.522120   -2.062751

 Total Charge           Charge          ....    0
 Multiplicity           Mult            ....    1
 Number of Electrons    NEL             ....   84
 Basis Dimension        Dim             ....  437

ORBITAL ENERGIES
----------------

  NO   OCC          E(Eh)            E(eV)
   0   2.0000     -21.668833      -589.6389
   1   2.0000     -12.098740      -329.2234
   2   2.0000     -12.055965      -328.0595
   3   2.0000     -12.050888      -327.9213
   4   2.0000     -12.047745      -327.8358
   5   2.0000     -12.047115      -327.8187
   6   2.0000     -12.042664      -327.6975
   7   2.0000     -12.041520      -327.6664
   8   2.0000     -12.039404      -327.6088
   9   2.0000     -12.034243      -327.4684
  10   2.0000     -12.029081      -327.3279
  11   2.0000      -1.665326       -45.3158
  12   2.0000      -1.364330       -37.1253
  13   2.0000      -1.324953       -36.0538
  14   2.0000      -1.267553       -34.4919
  15   2.0000      -1.256670       -34.1957
  16   2.0000      -1.186197       -32.2781
  17   2.0000      -1.183301       -32.1993
  18   2.0000      -1.134508       -30.8715
  19   2.0000      -1.101895       -29.9841
  20   2.0000      -1.029334       -28.0096
  21   2.0000      -1.005955       -27.3734
  22   2.0000      -0.975882       -26.5551
  23   2.0000      -0.941962       -25.6321
  24   2.0000      -0.927924       -25.2501
  25   2.0000      -0.913143       -24.8479
  26   2.0000      -0.897738       -24.4287
  27   2.0000      -0.893493       -24.3132
  28   2.0000      -0.869227       -23.6529
  29   2.0000      -0.863845       -23.5064
  30   2.0000      -0.837301       -22.7841
  31   2.0000      -0.829210       -22.5639
  32   2.0000      -0.826697       -22.4956
  33   2.0000      -0.816107       -22.2074
  34   2.0000      -0.812039       -22.0967
  35   2.0000      -0.805514       -21.9191
  36   2.0000      -0.799277       -21.7494
  37   2.0000      -0.772910       -21.0319
  38   2.0000      -0.769863       -20.9490
  39   2.0000      -0.762694       -20.7539
  40   2.0000      -0.642976       -17.4963
  41   2.0000      -0.639807       -17.4100
  42   0.0000      -0.222407        -6.0520
  43   0.0000      -0.196583        -5.3493
  44   0.0000      -0.115546        -3.1442
  45   0.0000      -0.058572        -1.5938
  46   0.0000      -0.050377        -1.3708

MULLIKEN ATOMIC CHARGES
-----------------------
   0 C :   -0.358884
   1 C :    0.004825
   2 C :   -0.208333
   3 C :   -0.151572
   4 C :    0.042571
   5 H :    0.085244
   6 C :   -0.288778
   7 C :    0.121077
   8 H :    0.084657
   9 O :   -0.441593
  10 C :    0.015574
  11 C :   -0.301722
  12 C :   -0.368242
  13 H :    0.106468
  14 H :    0.135552
  15 H :    0.109735
  16 H :    0.107480
  17 H :    0.106866
  18 H :    0.104626
  19 H :    0.111853
  20 H :    0.102514
  21 H :    0.293736
  22 H :    0.106999
  23 H :    0.118992
  24 H :    0.125112
  25 H :    0.115652
  26 H :    0.119592
Sum of atomic charges:    0.0000000

LOEWDIN ATOMIC CHARGES
----------------------
   0 C :   -0.256495
   1 C :   -0.179848
   2 C :   -0.130800
   3 C :   -0.211767
   4 C :   -0.205671
   5 H :    0.166435
   6 C :   -0.208803
   7 C :   -0.287296
   8 H :    0.138439
   9 O :   -0.034211
  10 C :   -0.202931
  11 C :   -0.199299
  12 C :   -0.254123
  13 H :    0.122519
  14 H :    0.130186
  15 H :    0.122800
  16 H :    0.140005
  17 H :    0.141522
  18 H :    0.146610
  19 H :    0.137643
  20 H :    0.145939
  21 H :    0.164882
  22 H :    0.118747
  23 H :    0.119734
  24 H :    0.125319
  25 H :    0.124242
  26 H :    0.126222

  Mayer bond orders larger than 0.100000
B(  0-C ,  1-C ) :   0.9574 B(  0-C , 13-H ) :   0.9723 B(  0-C , 14-H ) :   0.9744
B(  0-C , 15-H ) :   0.9906 B(  1-C ,  2-C ) :   1.9093 B(  1-C ,  7-C ) :   0.9773
B(  2-C ,  3-C ) :   1.0006 B(  2-C , 16-H ) :   0.9604 B(  3-C ,  4-C ) :   0.9673
B(  3-C , 17-H ) :   0.9671 B(  3-C , 18-H ) :   0.9446 B(  4-C ,  5-H ) :   0.9624
B(  4-C ,  6-C ) :   0.9585 B(  4-C , 10-C ) :   0.9317 B(  6-C ,  7-C ) :   1.0070
B(  6-C , 19-H ) :   0.9816 B(  6-C , 20-H ) :   0.9541 B(  7-C ,  8-H ) :   0.9769
B(  7-C ,  9-O ) :   1.1071 B(  9-O , 21-H ) :   0.9053 B( 10-C , 11-C ) :   1.9160
B( 10-C , 12-C ) :   0.9678 B( 11-C , 22-H ) :   0.9663 B( 11-C , 23-H ) :   0.9703
B( 12-C , 24-H ) :   0.9715 B( 12-C , 25-H ) :   0.9831 B( 12-C , 26-H ) :   0.9763

FINAL SINGLE POINT ENERGY      -465.919030820424

DIPOLE MOMENT
-------------

Method             : SCF
Type of density    : Electron Density
Multiplicity       :   1
Irrep              :   0
Energy             :  -465.9368307315237985 Eh
Relativity type    :
Basis              : AO
                                X                 Y                 Z
Electronic contribution:     -2.649377077      -2.044309880       0.481449209
Nuclear contribution   :      2.770314161       2.109847486      -0.115496706
                        -----------------------------------------
Total Dipole Moment    :      0.120937084       0.065537606       0.365952503
                        -----------------------------------------
Magnitude (a.u.)       :      0.390950368
Magnitude (Debye)      :      0.993716864

Rotational constants in cm-1:             0.070919             0.022375             0.019451
Rotational constants in MHz :          2126.091723           670.779024           583.136362

                             ****ORCA TERMINATED NORMALLY****
TOTAL RUN TIME: 0 days 0 hours 5 minutes 26 seconds 842 msec
