                         Program Version 6.0.0  -   RELEASE  -
|  1> ! wb97x-v def2-tzvp def2/J RIJCOSX DEFGRID2 scfconv7 GCP(DFT/TZ) printgap
|  2> %output
|  3>     printlevel normal
|  4> end
|  5> %cpcm
|  6>     smd true
|  7>     smdsolvent "water"
|  8> end
|  9> * xyz 0 1
| 10> C -3.440614731733986 0.577055396955047 -0.09877033617938692
| 11> C -1.9470740935522783 0.468124460757751 -0.02340639634062523
| 12> C -1.1222120280314587 1.3541696889731536 -0.5929062938761249
| 13> C 0.37331525699384915 1.2598432114867906 -0.5869819825546272
| 14> C 0.8728320351710663 -0.1319751456114087 -0.15795412691182123
| 15> H 0.6346625958374543 -0.8243456321868394 -0.9804586915385204
| 16> C 0.08324894571285894 -0.5713470887879698 1.0705677519894763
| 17> C -1.4038011249165063 -0.7001098885178242 0.7579435218452103
| 18> H -1.9620644575016455 -0.7679650994872519 1.7040169296089045
| 19> O -1.682914295837194 -1.9018461618255191 -0.014223710979630969
| 20> C 2.3759234060435106 -0.14291333120499156 0.006276318463754384
| 21> C 2.9881369555099138 -0.3648624020696892 1.1742904853616323
| 22> C 3.162581143385829 0.12940942158190397 -1.2456427911143895
| 23> H -3.8786157652503643 0.6384521875532989 0.9054361668521442
| 24> H -3.876218233146805 -0.30833966836506715 -0.5770276863592868
| 25> H -3.7489474106711924 1.4586838158708653 -0.667320661921384
| 26> H -1.5506862449969367 2.213092029398008 -1.1092079449108443
| 27> H 0.7465527624845305 1.5100600589200948 -1.5865663721436647
| 28> H 0.7911175273218727 2.0221347190155345 0.0896467465837978
| 29> H 0.44438255375968255 -1.5327413997298935 1.4544380141777886
| 30> H 0.2056249813981532 0.16697758246777317 1.874539888481286
| 31> H -1.4897603094507814 -2.653558439745207 0.5613125049283717
| 32> H 4.073145146033058 -0.3589511121674799 1.2407574928627534
| 33> H 2.4412939359378054 -0.5552022424425247 2.0920830242846726
| 34> H 3.016681140590163 1.1607113216333154 -1.5885739584962113
| 35> H 4.23264763500516 -0.024830335304848457 -1.0856915854115896
| 36> H 2.8298795604402787 -0.5221203195972689 -2.0627509652926426
| 37> *
| 38>
| 39>                          ****END OF INPUT****

CARTESIAN COORDINATES (ANGSTROEM)
---------------------------------
  C     -3.440615    0.577055   -0.098770
  C     -1.947074    0.468124   -0.023406
  C     -1.122212    1.354170   -0.592906
  C      0.373315    1.259843   -0.586982
  C      0.872832   -0.131975   -0.157954
  H      0.634663   -0.824346   -0.980459
  C      0.083249   -0.571347    1.070568
  C     -1.403801   -0.700110    0.757944
  H     -1.962064   -0.767965    1.704017
  O     -1.682914   -1.901846   -0.014224
  C      2.375923   -0.142913    0.006276
  C      2.988137   -0.364862    1.174290
  C      3.162581    0.129409   -1.245643
  H     -3.878616    0.638452    0.905436
  H     -3.876218   -0.308340   -0.577028
  H     -3.748947    1.458684   -0.667321
  H     -1.550686    2.213092   -1.109208
  H      0.746553    1.510060   -1.586566
  H      0.791118    2.022135    0.089647
  H      0.444383   -1.532741    1.454438
  H      0.205625    0.166978    1.874540
  H     -1.489760   -2.653558    0.561313
  H      4.073145   -0.358951    1.240757
  H      2.441294   -0.555202    2.092083
  H      3.016681    1.160711   -1.588574
  H      4.232648   -0.024830   -1.085692
  H      2.829880   -0.522120   -2.062751

 Total Charge           Charge          ....    0
 Multiplicity           Mult            ....    1
 Number of Electrons    NEL             ....   84
 Basis Dimension        Dim             ....  437

ORBITAL ENERGIES
----------------

  NO   OCC          E(Eh)            E(eV)
   0   2.0000     -21.671038      -589.6989
   1   2.0000     -12.092731      -329.0599
   2   2.0000     -12.053838      -328.0016
   3   2.0000     -12.045043      -327.7623
   4   2.0000     -12.044750      -327.7543
   5   2.0000     -12.039509      -327.6117
   6   2.0000     -12.037887      -327.5676
   7   2.0000     -12.032461      -327.4199
   8   2.0000     -12.030255      -327.3599
   9   2.0000     -12.030138      -327.3567
  10   2.0000     -12.024355      -327.1993
  11   2.0000      -1.667856       -45.3847
  12   2.0000      -1.359777       -37.0014
  13   2.0000      -1.321745       -35.9665
  14   2.0000      -1.262597       -34.3570
  15   2.0000      -1.251034       -34.0424
  16   2.0000      -1.180841       -32.1323
  17   2.0000      -1.179244       -32.0889
  18   2.0000      -1.130355       -30.7585
  19   2.0000      -1.096430       -29.8354
  20   2.0000      -1.028969       -27.9997
  21   2.0000      -1.003390       -27.3036
  22   2.0000      -0.974286       -26.5117
  23   2.0000      -0.940047       -25.5800
  24   2.0000      -0.924661       -25.1613
  25   2.0000      -0.910503       -24.7761
  26   2.0000      -0.894521       -24.3412
  27   2.0000      -0.888674       -24.1821
  28   2.0000      -0.864366       -23.5206
  29   2.0000      -0.858327       -23.3563
  30   2.0000      -0.830817       -22.6077
  31   2.0000      -0.822956       -22.3938
  32   2.0000      -0.820889       -22.3375
  33   2.0000      -0.810492       -22.0546
  34   2.0000      -0.806037       -21.9334
  35   2.0000      -0.799721       -21.7615
  36   2.0000      -0.793651       -21.5963
  37   2.0000      -0.766469       -20.8567
  38   2.0000      -0.762700       -20.7541
  39   2.0000      -0.756290       -20.5797
  40   2.0000      -0.641498       -17.4561
  41   2.0000      -0.638012       -17.3612
  42   0.0000      -0.220128        -5.9900
  43   0.0000      -0.194747        -5.2993
  44   0.0000      -0.111987        -3.0473
  45   0.0000      -0.047051        -1.2803
  46   0.0000      -0.041015        -1.1161

MULLIKEN ATOMIC CHARGES
-----------------------
   0 C :   -0.388407
   1 C :   -0.050423
   2 C :   -0.253182
   3 C :   -0.159822
   4 C :    0.035620
   5 H :    0.083902
   6 C :   -0.283591
   7 C :    0.157163
   8 H :    0.119380
   9 O :   -0.559289
  10 C :   -0.028051
  11 C :   -0.398089
  12 C :   -0.408356
  13 H :    0.133833
  14 H :    0.131175
  15 H :    0.135762
  16 H :    0.147088
  17 H :    0.132729
  18 H :    0.117125
  19 H :    0.135609
  20 H :    0.117787
  21 H :    0.356225
  22 H :    0.147874
  23 H :    0.156236
  24 H :    0.146630
  25 H :    0.137282
  26 H :    0.137787
Sum of atomic charges:    0.0000000

LOEWDIN ATOMIC CHARGES
----------------------
   0 C :   -0.264251
   1 C :   -0.195249
   2 C :   -0.137698
   3 C :   -0.210922
   4 C :   -0.208608
   5 H :    0.164294
   6 C :   -0.205833
   7 C :   -0.280852
   8 H :    0.148831
   9 O :   -0.074567
  10 C :   -0.208292
  11 C :   -0.220804
  12 C :   -0.257969
  13 H :    0.128929
  14 H :    0.127187
  15 H :    0.127976
  16 H :    0.147391
  17 H :    0.147823
  18 H :    0.149940
  19 H :    0.144630
  20 H :    0.150674
  21 H :    0.187695
  22 H :    0.124276
  23 H :    0.125768
  24 H :    0.131266
  25 H :    0.127663
  26 H :    0.130703

  Mayer bond orders larger than 0.100000
B(  0-C ,  1-C ) :   0.9625 B(  0-C , 13-H ) :   0.9717 B(  0-C , 14-H ) :   0.9669
B(  0-C , 15-H ) :   0.9886 B(  1-C ,  2-C ) :   1.8965 B(  1-C ,  7-C ) :   0.9666
B(  2-C ,  3-C ) :   0.9931 B(  2-C , 16-H ) :   0.9639 B(  3-C ,  4-C ) :   0.9607
B(  3-C , 17-H ) :   0.9654 B(  3-C , 18-H ) :   0.9415 B(  4-C ,  5-H ) :   0.9600
B(  4-C ,  6-C ) :   0.9524 B(  4-C , 10-C ) :   0.9249 B(  6-C ,  7-C ) :   1.0079
B(  6-C , 19-H ) :   0.9793 B(  6-C , 20-H ) :   0.9499 B(  7-C ,  8-H ) :   0.9847
B(  7-C ,  9-O ) :   1.0395 B(  9-O , 21-H ) :   0.8701 B( 10-C , 11-C ) :   1.9000
B( 10-C , 12-C ) :   0.9738 B( 11-C , 22-H ) :   0.9678 B( 11-C , 23-H ) :   0.9703
B( 12-C , 24-H ) :   0.9648 B( 12-C , 25-H ) :   0.9794 B( 12-C , 26-H ) :   0.9723

FINAL SINGLE POINT ENERGY      -465.927018928397

DIPOLE MOMENT
-------------

Method             : SCF
Type of density    : Electron Density
Multiplicity       :   1
Irrep              :   0
Energy             :  -465.9448188394970884 Eh
Relativity type    :
Basis              : AO
                                X                 Y                 Z
Electronic contribution:     -2.576579422      -1.950237992       0.702177326
Nuclear contribution   :      2.770314161       2.109847486      -0.115496706
                        -----------------------------------------
Total Dipole Moment    :      0.193734740       0.159609494       0.586680619
                        -----------------------------------------
Magnitude (a.u.)       :      0.638124196
Magnitude (Debye)      :      1.621982804

Rotational constants in cm-1:             0.070919             0.022375             0.019451
Rotational constants in MHz :          2126.091723           670.779024           583.136362

                             ****ORCA TERMINATED NORMALLY****
TOTAL RUN TIME: 0 days 0 hours 5 minutes 35 seconds 267 msec
