                         Program Version 6.0.0  -   RELEASE  -
|  1> ! wb97x-v def2-tzvp def2/J RIJCOSX DEFGRID2 scfconv7 GCP(DFT/TZ) printgap
|  2> %output
|  3>     printlevel normal
|  4> end
|  5> * xyz 0 1
|  6> C -3.0490384967369724 -8.348349947364934e-08 -8.57128475644894e-05
|  7> C -2.35140183402123 -1.205062681442142 -0.00022032049497602786
|  8> C -0.9577852427942165 -1.2160329449484464 -0.00021424650865315835
|  9> C -0.286143357749444 2.943182059597408e-06 -9.118060940087546e-05
| 10> C -0.957788369749721 1.2160372214334412 -0.00011503899710193821
| 11> C -2.351404877510613 1.2050639919520285 -8.258238561537136e-05
| 12> Br 1.6358739594921148 4.94467174587862e-06 -0.00036854650234105697
| 13> H -4.13392195599154 -1.5069663913918047e-06 -3.274839503264361e-05
| 14> H -2.8876658921648315 -2.148681047689243 -0.00019836664986529843
| 15> H -0.4135588648046664 -2.1532742459176406 -0.0002667508339854665
| 16> H -0.41356443733762666 2.1532799247506342 -6.782078487111444e-05
| 17> H -2.8876709402462026 2.14868131691152 -7.611153556188149e-06
| 18> *
| 19>
| 20>                          ****END OF INPUT****

CARTESIAN COORDINATES (ANGSTROEM)
---------------------------------
  C     -3.049038   -0.000000   -0.000086
  C     -2.351402   -1.205063   -0.000220
  C     -0.957785   -1.216033   -0.000214
  C     -0.286143    0.000003   -0.000091
  C     -0.957788    1.216037   -0.000115
  C     -2.351405    1.205064   -0.000083
  Br     1.635874    0.000005   -0.000369
  H     -4.133922   -0.000002   -0.000033
  H     -2.887666   -2.148681   -0.000198
  H     -0.413559   -2.153274   -0.000267
  H     -0.413564    2.153280   -0.000068
  H     -2.887671    2.148681   -0.000008

 Total Charge           Charge          ....    0
 Multiplicity           Mult            ....    1
 Number of Electrons    NEL             ....   76
 Basis Dimension        Dim             ....  264

ORBITAL ENERGIES
----------------

  NO   OCC          E(Eh)            E(eV)
   0   2.0000    -494.723212    -13462.1030
   1   2.0000     -66.892489     -1820.2372
   2   2.0000     -60.949134     -1658.5103
   3   2.0000     -60.947881     -1658.4762
   4   2.0000     -60.947813     -1658.4743
   5   2.0000     -12.116654      -329.7109
   6   2.0000     -12.070288      -328.4492
   7   2.0000     -12.069799      -328.4359
   8   2.0000     -12.067985      -328.3866
   9   2.0000     -12.067552      -328.3748
  10   2.0000     -12.064151      -328.2822
  11   2.0000     -10.644320      -289.6467
  12   2.0000      -8.424062      -229.2304
  13   2.0000      -8.417394      -229.0489
  14   2.0000      -8.417314      -229.0468
  15   2.0000      -4.409210      -119.9807
  16   2.0000      -4.406632      -119.9106
  17   2.0000      -4.406412      -119.9046
  18   2.0000      -4.399157      -119.7071
  19   2.0000      -4.399128      -119.7063
  20   2.0000      -1.408854       -38.3369
  21   2.0000      -1.342580       -36.5335
  22   2.0000      -1.292536       -35.1717
  23   2.0000      -1.269968       -34.5576
  24   2.0000      -1.127361       -30.6771
  25   2.0000      -1.110346       -30.2140
  26   2.0000      -0.978572       -26.6283
  27   2.0000      -0.971788       -26.4437
  28   2.0000      -0.926220       -25.2037
  29   2.0000      -0.893603       -24.3162
  30   2.0000      -0.883595       -24.0438
  31   2.0000      -0.829415       -22.5695
  32   2.0000      -0.823462       -22.4076
  33   2.0000      -0.800959       -21.7952
  34   2.0000      -0.737062       -20.0565
  35   2.0000      -0.730948       -19.8901
  36   2.0000      -0.655197       -17.8288
  37   2.0000      -0.651735       -17.7346
  38   0.0000      -0.292414        -7.9570
  39   0.0000      -0.259922        -7.0728
  40   0.0000      -0.252752        -6.8777
  41   0.0000      -0.085144        -2.3169
  42   0.0000      -0.033163        -0.9024

MULLIKEN ATOMIC CHARGES
-----------------------
   0 C :   -0.123095
   1 C :   -0.108900
   2 C :   -0.161700
   3 C :    0.081669
   4 C :   -0.161543
   5 C :   -0.109097
   6 Br:   -0.075761
   7 H :    0.124578
   8 H :    0.125661
   9 H :    0.141258
  10 H :    0.141319
  11 H :    0.125611
Sum of atomic charges:    0.0000000

LOEWDIN ATOMIC CHARGES
----------------------
   0 C :   -0.137330
   1 C :   -0.130167
   2 C :   -0.141816
   3 C :   -0.363018
   4 C :   -0.141816
   5 C :   -0.130168
   6 Br:    0.315759
   7 H :    0.143724
   8 H :    0.144958
   9 H :    0.147458
  10 H :    0.147458
  11 H :    0.144958

  Mayer bond orders larger than 0.100000
B(  0-C ,  1-C ) :   1.4265 B(  0-C ,  5-C ) :   1.4264 B(  0-C ,  7-H ) :   0.9691
B(  1-C ,  2-C ) :   1.4116 B(  1-C ,  8-H ) :   0.9688 B(  2-C ,  3-C ) :   1.3908
B(  2-C ,  9-H ) :   0.9647 B(  3-C ,  4-C ) :   1.3909 B(  3-C ,  6-Br) :   1.0479
B(  4-C ,  5-C ) :   1.4117 B(  4-C , 10-H ) :   0.9646 B(  5-C , 11-H ) :   0.9689

FINAL SINGLE POINT ENERGY     -2805.573896006576

DIPOLE MOMENT
-------------

Method             : SCF
Type of density    : Electron Density
Multiplicity       :   1
Irrep              :   0
Energy             : -2805.5808757765753398 Eh
Relativity type    :
Basis              : AO
                                X                 Y                 Z
Electronic contribution:     24.485061524       0.000025241      -0.001664955
Nuclear contribution   :    -25.252008031      -0.000027085       0.001721200
                        -----------------------------------------
Total Dipole Moment    :     -0.766946507      -0.000001844       0.000056244
                        -----------------------------------------
Magnitude (a.u.)       :      0.766946509
Magnitude (Debye)      :      1.949423103

Rotational constants in cm-1:             0.189281             0.032689             0.027875
Rotational constants in MHz :          5674.502715           979.983716           835.664828

                             ****ORCA TERMINATED NORMALLY****
TOTAL RUN TIME: 0 days 0 hours 2 minutes 31 seconds 291 msec
