                         Program Version 6.0.0  -   RELEASE  -
|  1> ! wb97x-v def2-tzvp def2/J RIJCOSX DEFGRID2 scfconv7 GCP(DFT/TZ) printgap
|  2> %output
|  3>     printlevel normal
|  4> end
|  5> %cpcm
|  6>     smd true
|  7>     smdsolvent "water"
|  8> end
|  9> * xyz 0 1
| 10> C -3.0490384967369724 -8.348349947364934e-08 -8.57128475644894e-05
| 11> C -2.35140183402123 -1.205062681442142 -0.00022032049497602786
| 12> C -0.9577852427942165 -1.2160329449484464 -0.00021424650865315835
| 13> C -0.286143357749444 2.943182059597408e-06 -9.118060940087546e-05
| 14> C -0.957788369749721 1.2160372214334412 -0.00011503899710193821
| 15> C -2.351404877510613 1.2050639919520285 -8.258238561537136e-05
| 16> Br 1.6358739594921148 4.94467174587862e-06 -0.00036854650234105697
| 17> H -4.13392195599154 -1.5069663913918047e-06 -3.274839503264361e-05
| 18> H -2.8876658921648315 -2.148681047689243 -0.00019836664986529843
| 19> H -0.4135588648046664 -2.1532742459176406 -0.0002667508339854665
| 20> H -0.41356443733762666 2.1532799247506342 -6.782078487111444e-05
| 21> H -2.8876709402462026 2.14868131691152 -7.611153556188149e-06
| 22> *
| 23>
| 24>                          ****END OF INPUT****

CARTESIAN COORDINATES (ANGSTROEM)
---------------------------------
  C     -3.049038   -0.000000   -0.000086
  C     -2.351402   -1.205063   -0.000220
  C     -0.957785   -1.216033   -0.000214
  C     -0.286143    0.000003   -0.000091
  C     -0.957788    1.216037   -0.000115
  C     -2.351405    1.205064   -0.000083
  Br     1.635874    0.000005   -0.000369
  H     -4.133922   -0.000002   -0.000033
  H     -2.887666   -2.148681   -0.000198
  H     -0.413559   -2.153274   -0.000267
  H     -0.413564    2.153280   -0.000068
  H     -2.887671    2.148681   -0.000008

 Total Charge           Charge          ....    0
 Multiplicity           Mult            ....    1
 Number of Electrons    NEL             ....   76
 Basis Dimension        Dim             ....  264

ORBITAL ENERGIES
----------------

  NO   OCC          E(Eh)            E(eV)
   0   2.0000    -494.724221    -13462.1304
   1   2.0000     -66.893569     -1820.2666
   2   2.0000     -60.950194     -1658.5391
   3   2.0000     -60.948976     -1658.5059
   4   2.0000     -60.948906     -1658.5040
   5   2.0000     -12.112955      -329.6103
   6   2.0000     -12.063224      -328.2570
   7   2.0000     -12.062767      -328.2446
   8   2.0000     -12.059124      -328.1454
   9   2.0000     -12.058749      -328.1352
  10   2.0000     -12.054995      -328.0331
  11   2.0000     -10.645469      -289.6779
  12   2.0000      -8.425126      -229.2593
  13   2.0000      -8.418638      -229.0828
  14   2.0000      -8.418548      -229.0803
  15   2.0000      -4.410245      -120.0089
  16   2.0000      -4.407754      -119.9411
  17   2.0000      -4.407512      -119.9345
  18   2.0000      -4.400442      -119.7421
  19   2.0000      -4.400414      -119.7413
  20   2.0000      -1.404064       -38.2065
  21   2.0000      -1.340837       -36.4860
  22   2.0000      -1.285518       -34.9807
  23   2.0000      -1.265390       -34.4330
  24   2.0000      -1.119968       -30.4759
  25   2.0000      -1.102996       -30.0140
  26   2.0000      -0.970049       -26.3964
  27   2.0000      -0.964787       -26.2532
  28   2.0000      -0.916542       -24.9404
  29   2.0000      -0.884324       -24.0637
  30   2.0000      -0.877406       -23.8754
  31   2.0000      -0.819516       -22.3002
  32   2.0000      -0.816563       -22.2198
  33   2.0000      -0.797575       -21.7031
  34   2.0000      -0.736690       -20.0464
  35   2.0000      -0.732188       -19.9238
  36   2.0000      -0.649110       -17.6632
  37   2.0000      -0.647773       -17.6268
  38   0.0000      -0.291332        -7.9276
  39   0.0000      -0.254797        -6.9334
  40   0.0000      -0.246477        -6.7070
  41   0.0000      -0.078693        -2.1413
  42   0.0000      -0.016796        -0.4570

MULLIKEN ATOMIC CHARGES
-----------------------
   0 C :   -0.159152
   1 C :   -0.153807
   2 C :   -0.195018
   3 C :    0.097153
   4 C :   -0.194855
   5 C :   -0.154009
   6 Br:   -0.091335
   7 H :    0.166806
   8 H :    0.168216
   9 H :    0.173889
  10 H :    0.173949
  11 H :    0.168163
Sum of atomic charges:    0.0000000

LOEWDIN ATOMIC CHARGES
----------------------
   0 C :   -0.139831
   1 C :   -0.132833
   2 C :   -0.147966
   3 C :   -0.374223
   4 C :   -0.147966
   5 C :   -0.132834
   6 Br:    0.300222
   7 H :    0.153976
   8 H :    0.155620
   9 H :    0.155107
  10 H :    0.155107
  11 H :    0.155620

  Mayer bond orders larger than 0.100000
B(  0-C ,  1-C ) :   1.4046 B(  0-C ,  5-C ) :   1.4045 B(  0-C ,  7-H ) :   0.9703
B(  1-C ,  2-C ) :   1.4067 B(  1-C ,  8-H ) :   0.9702 B(  2-C ,  3-C ) :   1.3521
B(  2-C ,  9-H ) :   0.9704 B(  3-C ,  4-C ) :   1.3522 B(  3-C ,  6-Br) :   1.0503
B(  4-C ,  5-C ) :   1.4067 B(  4-C , 10-H ) :   0.9703 B(  5-C , 11-H ) :   0.9703

FINAL SINGLE POINT ENERGY     -2805.576967498331

DIPOLE MOMENT
-------------

Method             : SCF
Type of density    : Electron Density
Multiplicity       :   1
Irrep              :   0
Energy             : -2805.5839472683310305 Eh
Relativity type    :
Basis              : AO
                                X                 Y                 Z
Electronic contribution:     24.215994594       0.000024296      -0.001645841
Nuclear contribution   :    -25.252008031      -0.000027085       0.001721200
                        -----------------------------------------
Total Dipole Moment    :     -1.036013437      -0.000002789       0.000075359
                        -----------------------------------------
Magnitude (a.u.)       :      1.036013440
Magnitude (Debye)      :      2.633336890

Rotational constants in cm-1:             0.189281             0.032689             0.027875
Rotational constants in MHz :          5674.502715           979.983716           835.664828

                             ****ORCA TERMINATED NORMALLY****
TOTAL RUN TIME: 0 days 0 hours 2 minutes 24 seconds 401 msec
