                         Program Version 6.0.0  -   RELEASE  -
|  1> ! r2scan-3c def2/J RI DEFGRID2 scfconv6 printgap
|  2> %output
|  3>     printlevel normal
|  4> end
|  5> * xyz 0 1
|  6> C -3.5333964255 -0.2976530383 -0.0003155805
|  7> C -2.8609321623 -1.5204911404 0.0002985659
|  8> C -1.4881690168 -1.5603834453 0.0005410079
|  9> C -0.7217469774 -0.3835002143 0.0001885618
| 10> C -1.4099148815 0.8532873758 -0.0001537763
| 11> C -2.8142044864 0.8695558995 -0.0005217037
| 12> C -0.6757345637 2.0738794386 2.27648e-05
| 13> C 0.6757127033 2.073884081 0.0003591437
| 14> C 1.4099088997 0.8533006008 0.000241985
| 15> C 0.721756479 -0.3834884334 5.45224e-05
| 16> C 1.488178511 -1.5603881409 -0.0002503427
| 17> C 2.8609418033 -1.5204804133 -0.0003564504
| 18> C 3.5334027041 -0.2976466683 -0.0001310449
| 19> C 2.8142026359 0.8695565979 0.000102992
| 20> H -4.6127739731 -0.2764387718 -0.0006081506
| 21> H -3.425625461 -2.4409004244 0.0005583112
| 22> H -1.0001818335 -2.5218294012 0.0010445641
| 23> H -3.3200243613 1.8244206544 -0.0008961167
| 24> H -1.2306094535 3.0010142502 -0.000180452
| 25> H 1.2305572089 3.0010312137 0.0003531071
| 26> H 1.00014773 -2.5218328223 -0.0002572067
| 27> H 3.4256311176 -2.440878602 -0.000751558
| 28> H 4.6127829468 -0.2764152552 -0.0003600664
| 29> H 3.3200338406 1.824412003 0.0001365319
| 30> *
| 31>
| 32>                          ****END OF INPUT****

CARTESIAN COORDINATES (ANGSTROEM)
---------------------------------
  C     -3.533396   -0.297653   -0.000316
  C     -2.860932   -1.520491    0.000299
  C     -1.488169   -1.560383    0.000541
  C     -0.721747   -0.383500    0.000189
  C     -1.409915    0.853287   -0.000154
  C     -2.814204    0.869556   -0.000522
  C     -0.675735    2.073879    0.000023
  C      0.675713    2.073884    0.000359
  C      1.409909    0.853301    0.000242
  C      0.721756   -0.383488    0.000055
  C      1.488179   -1.560388   -0.000250
  C      2.860942   -1.520480   -0.000356
  C      3.533403   -0.297647   -0.000131
  C      2.814203    0.869557    0.000103
  H     -4.612774   -0.276439   -0.000608
  H     -3.425625   -2.440900    0.000558
  H     -1.000182   -2.521829    0.001045
  H     -3.320024    1.824421   -0.000896
  H     -1.230609    3.001014   -0.000180
  H      1.230557    3.001031    0.000353
  H      1.000148   -2.521833   -0.000257
  H      3.425631   -2.440879   -0.000752
  H      4.612783   -0.276415   -0.000360
  H      3.320034    1.824412    0.000137

 Total Charge           Charge          ....    0
 Multiplicity           Mult            ....    1
 Number of Electrons    NEL             ....   94
 Basis Dimension        Dim             ....  316

ORBITAL ENERGIES
----------------

  NO   OCC          E(Eh)            E(eV)
   0   2.0000     -10.050826      -273.4969
   1   2.0000     -10.050560      -273.4897
   2   2.0000     -10.047762      -273.4135
   3   2.0000     -10.047752      -273.4132
   4   2.0000     -10.038733      -273.1678
   5   2.0000     -10.038579      -273.1636
   6   2.0000     -10.038572      -273.1634
   7   2.0000     -10.038192      -273.1531
   8   2.0000     -10.038189      -273.1530
   9   2.0000     -10.038109      -273.1508
  10   2.0000     -10.037895      -273.1450
  11   2.0000     -10.037893      -273.1450
  12   2.0000     -10.037282      -273.1283
  13   2.0000     -10.037282      -273.1283
  14   2.0000      -0.857263       -23.3273
  15   2.0000      -0.823118       -22.3982
  16   2.0000      -0.782281       -21.2869
  17   2.0000      -0.749896       -20.4057
  18   2.0000      -0.729452       -19.8494
  19   2.0000      -0.697449       -18.9785
  20   2.0000      -0.690769       -18.7968
  21   2.0000      -0.606035       -16.4911
  22   2.0000      -0.598697       -16.2914
  23   2.0000      -0.583552       -15.8792
  24   2.0000      -0.556195       -15.1348
  25   2.0000      -0.505028       -13.7425
  26   2.0000      -0.503413       -13.6986
  27   2.0000      -0.469654       -12.7799
  28   2.0000      -0.451336       -12.2815
  29   2.0000      -0.448257       -12.1977
  30   2.0000      -0.409616       -11.1462
  31   2.0000      -0.403381       -10.9766
  32   2.0000      -0.398755       -10.8507
  33   2.0000      -0.394890       -10.7455
  34   2.0000      -0.383007       -10.4221
  35   2.0000      -0.381651       -10.3852
  36   2.0000      -0.363560        -9.8930
  37   2.0000      -0.342328        -9.3152
  38   2.0000      -0.335040        -9.1169
  39   2.0000      -0.331322        -9.0157
  40   2.0000      -0.304951        -8.2981
  41   2.0000      -0.299497        -8.1497
  42   2.0000      -0.295565        -8.0427
  43   2.0000      -0.271572        -7.3898
  44   2.0000      -0.250730        -6.8227
  45   2.0000      -0.214784        -5.8446
  46   2.0000      -0.203941        -5.5495
  47   0.0000      -0.067743        -1.8434
  48   0.0000      -0.063021        -1.7149
  49   0.0000      -0.026574        -0.7231
  50   0.0000       0.001063         0.0289
  51   0.0000       0.045156         1.2287

MULLIKEN ATOMIC CHARGES
-----------------------
   0 C :   -0.166791
   1 C :   -0.135837
   2 C :   -0.261143
   3 C :    0.178337
   4 C :    0.176074
   5 C :   -0.194712
   6 C :   -0.292409
   7 C :   -0.292450
   8 C :    0.176146
   9 C :    0.178245
  10 C :   -0.261136
  11 C :   -0.135844
  12 C :   -0.166776
  13 C :   -0.194725
  14 H :    0.145200
  15 H :    0.144903
  16 H :    0.122289
  17 H :    0.142578
  18 H :    0.141539
  19 H :    0.141538
  20 H :    0.122294
  21 H :    0.144902
  22 H :    0.145202
  23 H :    0.142576
Sum of atomic charges:   -0.0000000

LOEWDIN ATOMIC CHARGES
----------------------
   0 C :   -0.162618
   1 C :   -0.161580
   2 C :   -0.139768
   3 C :   -0.037493
   4 C :   -0.057638
   5 C :   -0.144315
   6 C :   -0.142405
   7 C :   -0.142405
   8 C :   -0.057638
   9 C :   -0.037492
  10 C :   -0.139767
  11 C :   -0.161579
  12 C :   -0.162620
  13 C :   -0.144313
  14 H :    0.168038
  15 H :    0.167697
  16 H :    0.168037
  17 H :    0.170500
  18 H :    0.171542
  19 H :    0.171541
  20 H :    0.168041
  21 H :    0.167695
  22 H :    0.168039
  23 H :    0.170499

  Mayer bond orders larger than 0.100000
B(  0-C ,  1-C ) :   1.3063 B(  0-C ,  5-C ) :   1.4672 B(  0-C , 14-H ) :   0.9513
B(  1-C ,  2-C ) :   1.4679 B(  1-C , 15-H ) :   0.9481 B(  2-C ,  3-C ) :   1.3049
B(  2-C , 16-H ) :   0.9482 B(  3-C ,  4-C ) :   1.5002 B(  3-C ,  8-C ) :  -0.1361
B(  3-C ,  9-C ) :   0.9885 B(  4-C ,  5-C ) :   1.1987 B(  4-C ,  6-C ) :   1.1198
B(  4-C ,  9-C ) :  -0.1361 B(  5-C , 17-H ) :   0.9464 B(  6-C ,  7-C ) :   1.5201
B(  6-C , 18-H ) :   0.9478 B(  7-C ,  8-C ) :   1.1198 B(  7-C , 19-H ) :   0.9478
B(  8-C ,  9-C ) :   1.5002 B(  8-C , 13-C ) :   1.1987 B(  9-C , 10-C ) :   1.3049
B( 10-C , 11-C ) :   1.4679 B( 10-C , 20-H ) :   0.9482 B( 11-C , 12-C ) :   1.3063
B( 11-C , 21-H ) :   0.9481 B( 12-C , 13-C ) :   1.4673 B( 12-C , 22-H ) :   0.9513
B( 13-C , 23-H ) :   0.9464

Dispersion correction           -0.010936614
FINAL SINGLE POINT ENERGY      -539.391192319056

DIPOLE MOMENT
-------------

Method             : SCF
Type of density    : Electron Density
Multiplicity       :   1
Irrep              :   0
Energy             :  -539.3851208362488023 Eh
Relativity type    :
Basis              : AO
                                X                 Y                 Z
Electronic contribution:      0.000053105       0.759831799       0.000707204
Nuclear contribution   :     -0.000058390      -0.776258907      -0.000901616
                        -----------------------------------------
Total Dipole Moment    :     -0.000005286      -0.016427107      -0.000194413
                        -----------------------------------------
Magnitude (a.u.)       :      0.016428259
Magnitude (Debye)      :      0.041757315

Rotational constants in cm-1:             0.054642             0.018626             0.013891
Rotational constants in MHz :          1638.122330           558.393775           416.440079

                             ****ORCA TERMINATED NORMALLY****
TOTAL RUN TIME: 0 days 0 hours 0 minutes 48 seconds 268 msec
