                         Program Version 6.0.0  -   RELEASE  -
|  1> ! r2scan-3c def2/J RI DEFGRID2 scfconv6 printgap
|  2> %output
|  3>     printlevel normal
|  4> end
|  5> %cpcm
|  6>     smd true
|  7>     smdsolvent "water"
|  8> end
|  9> * xyz 0 1
| 10> C -3.5333964255 -0.2976530383 -0.0003155805
| 11> C -2.8609321623 -1.5204911404 0.0002985659
| 12> C -1.4881690168 -1.5603834453 0.0005410079
| 13> C -0.7217469774 -0.3835002143 0.0001885618
| 14> C -1.4099148815 0.8532873758 -0.0001537763
| 15> C -2.8142044864 0.8695558995 -0.0005217037
| 16> C -0.6757345637 2.0738794386 2.27648e-05
| 17> C 0.6757127033 2.073884081 0.0003591437
| 18> C 1.4099088997 0.8533006008 0.000241985
| 19> C 0.721756479 -0.3834884334 5.45224e-05
| 20> C 1.488178511 -1.5603881409 -0.0002503427
| 21> C 2.8609418033 -1.5204804133 -0.0003564504
| 22> C 3.5334027041 -0.2976466683 -0.0001310449
| 23> C 2.8142026359 0.8695565979 0.000102992
| 24> H -4.6127739731 -0.2764387718 -0.0006081506
| 25> H -3.425625461 -2.4409004244 0.0005583112
| 26> H -1.0001818335 -2.5218294012 0.0010445641
| 27> H -3.3200243613 1.8244206544 -0.0008961167
| 28> H -1.2306094535 3.0010142502 -0.000180452
| 29> H 1.2305572089 3.0010312137 0.0003531071
| 30> H 1.00014773 -2.5218328223 -0.0002572067
| 31> H 3.4256311176 -2.440878602 -0.000751558
| 32> H 4.6127829468 -0.2764152552 -0.0003600664
| 33> H 3.3200338406 1.824412003 0.0001365319
| 34> *
| 35>
| 36>                          ****END OF INPUT****

CARTESIAN COORDINATES (ANGSTROEM)
---------------------------------
  C     -3.533396   -0.297653   -0.000316
  C     -2.860932   -1.520491    0.000299
  C     -1.488169   -1.560383    0.000541
  C     -0.721747   -0.383500    0.000189
  C     -1.409915    0.853287   -0.000154
  C     -2.814204    0.869556   -0.000522
  C     -0.675735    2.073879    0.000023
  C      0.675713    2.073884    0.000359
  C      1.409909    0.853301    0.000242
  C      0.721756   -0.383488    0.000055
  C      1.488179   -1.560388   -0.000250
  C      2.860942   -1.520480   -0.000356
  C      3.533403   -0.297647   -0.000131
  C      2.814203    0.869557    0.000103
  H     -4.612774   -0.276439   -0.000608
  H     -3.425625   -2.440900    0.000558
  H     -1.000182   -2.521829    0.001045
  H     -3.320024    1.824421   -0.000896
  H     -1.230609    3.001014   -0.000180
  H      1.230557    3.001031    0.000353
  H      1.000148   -2.521833   -0.000257
  H      3.425631   -2.440879   -0.000752
  H      4.612783   -0.276415   -0.000360
  H      3.320034    1.824412    0.000137

 Total Charge           Charge          ....    0
 Multiplicity           Mult            ....    1
 Number of Electrons    NEL             ....   94
 Basis Dimension        Dim             ....  316

ORBITAL ENERGIES
----------------

  NO   OCC          E(Eh)            E(eV)
   0   2.0000     -10.051251      -273.5084
   1   2.0000     -10.050985      -273.5012
   2   2.0000     -10.047803      -273.4146
   3   2.0000     -10.047793      -273.4144
   4   2.0000     -10.036385      -273.1039
   5   2.0000     -10.036063      -273.0952
   6   2.0000     -10.036055      -273.0949
   7   2.0000     -10.035761      -273.0869
   8   2.0000     -10.035583      -273.0821
   9   2.0000     -10.035581      -273.0820
  10   2.0000     -10.035088      -273.0686
  11   2.0000     -10.035086      -273.0686
  12   2.0000     -10.034415      -273.0503
  13   2.0000     -10.034415      -273.0503
  14   2.0000      -0.857993       -23.3472
  15   2.0000      -0.823055       -22.3965
  16   2.0000      -0.781506       -21.2659
  17   2.0000      -0.749234       -20.3877
  18   2.0000      -0.728294       -19.8179
  19   2.0000      -0.696344       -18.9485
  20   2.0000      -0.689207       -18.7543
  21   2.0000      -0.603800       -16.4302
  22   2.0000      -0.596518       -16.2321
  23   2.0000      -0.581349       -15.8193
  24   2.0000      -0.553182       -15.0529
  25   2.0000      -0.501373       -13.6431
  26   2.0000      -0.499892       -13.6028
  27   2.0000      -0.466272       -12.6879
  28   2.0000      -0.446484       -12.1494
  29   2.0000      -0.444344       -12.0912
  30   2.0000      -0.406413       -11.0591
  31   2.0000      -0.399447       -10.8695
  32   2.0000      -0.394686       -10.7400
  33   2.0000      -0.390881       -10.6364
  34   2.0000      -0.386388       -10.5142
  35   2.0000      -0.378250       -10.2927
  36   2.0000      -0.358251        -9.7485
  37   2.0000      -0.344905        -9.3853
  38   2.0000      -0.330604        -8.9962
  39   2.0000      -0.326435        -8.8827
  40   2.0000      -0.301773        -8.2117
  41   2.0000      -0.301394        -8.2013
  42   2.0000      -0.291406        -7.9296
  43   2.0000      -0.273835        -7.4514
  44   2.0000      -0.252666        -6.8754
  45   2.0000      -0.216767        -5.8985
  46   2.0000      -0.205498        -5.5919
  47   0.0000      -0.068779        -1.8716
  48   0.0000      -0.064254        -1.7484
  49   0.0000      -0.027891        -0.7590
  50   0.0000       0.000001         0.0000
  51   0.0000       0.045039         1.2256

MULLIKEN ATOMIC CHARGES
-----------------------
   0 C :   -0.197973
   1 C :   -0.173184
   2 C :   -0.277666
   3 C :    0.163349
   4 C :    0.130303
   5 C :   -0.208285
   6 C :   -0.309699
   7 C :   -0.309727
   8 C :    0.130346
   9 C :    0.163342
  10 C :   -0.277673
  11 C :   -0.173181
  12 C :   -0.197957
  13 C :   -0.208307
  14 H :    0.178301
  15 H :    0.178277
  16 H :    0.161275
  17 H :    0.178740
  18 H :    0.176563
  19 H :    0.176563
  20 H :    0.161277
  21 H :    0.178274
  22 H :    0.178303
  23 H :    0.178739
Sum of atomic charges:   -0.0000000

LOEWDIN ATOMIC CHARGES
----------------------
   0 C :   -0.169959
   1 C :   -0.168933
   2 C :   -0.147586
   3 C :   -0.050693
   4 C :   -0.070616
   5 C :   -0.151145
   6 C :   -0.148746
   7 C :   -0.148746
   8 C :   -0.070617
   9 C :   -0.050692
  10 C :   -0.147586
  11 C :   -0.168932
  12 C :   -0.169960
  13 C :   -0.151144
  14 H :    0.179299
  15 H :    0.179122
  16 H :    0.181598
  17 H :    0.183234
  18 H :    0.184424
  19 H :    0.184423
  20 H :    0.181602
  21 H :    0.179119
  22 H :    0.179301
  23 H :    0.183232

  Mayer bond orders larger than 0.100000
B(  0-C ,  1-C ) :   1.2690 B(  0-C ,  5-C ) :   1.4292 B(  0-C , 14-H ) :   0.9634
B(  1-C ,  2-C ) :   1.4356 B(  1-C , 15-H ) :   0.9600 B(  2-C ,  3-C ) :   1.2889
B(  2-C , 16-H ) :   0.9633 B(  3-C ,  4-C ) :   1.4102 B(  3-C ,  8-C ) :  -0.1399
B(  3-C ,  9-C ) :   0.9663 B(  4-C ,  5-C ) :   1.2088 B(  4-C ,  6-C ) :   1.1169
B(  4-C ,  9-C ) :  -0.1399 B(  5-C , 17-H ) :   0.9534 B(  6-C ,  7-C ) :   1.4821
B(  6-C , 18-H ) :   0.9689 B(  7-C ,  8-C ) :   1.1169 B(  7-C , 19-H ) :   0.9689
B(  8-C ,  9-C ) :   1.4102 B(  8-C , 13-C ) :   1.2087 B(  9-C , 10-C ) :   1.2889
B( 10-C , 11-C ) :   1.4356 B( 10-C , 20-H ) :   0.9632 B( 11-C , 12-C ) :   1.2690
B( 11-C , 21-H ) :   0.9600 B( 12-C , 13-C ) :   1.4293 B( 12-C , 22-H ) :   0.9634
B( 13-C , 23-H ) :   0.9534

Dispersion correction           -0.010936614
FINAL SINGLE POINT ENERGY      -539.396808411610

DIPOLE MOMENT
-------------

Method             : SCF
Type of density    : Electron Density
Multiplicity       :   1
Irrep              :   0
Energy             :  -539.3907369288028804 Eh
Relativity type    :
Basis              : AO
                                X                 Y                 Z
Electronic contribution:      0.000045671       0.752219394       0.000636385
Nuclear contribution   :     -0.000058390      -0.776258907      -0.000901616
                        -----------------------------------------
Total Dipole Moment    :     -0.000012720      -0.024039513      -0.000265231
                        -----------------------------------------
Magnitude (a.u.)       :      0.024040979
Magnitude (Debye)      :      0.061107313

Rotational constants in cm-1:             0.054642             0.018626             0.013891
Rotational constants in MHz :          1638.122330           558.393775           416.440079

                             ****ORCA TERMINATED NORMALLY****
TOTAL RUN TIME: 0 days 0 hours 0 minutes 42 seconds 904 msec
