                         Program Version 6.0.0  -   RELEASE  -
|  1> ! pbe def2-sv(p) def2/J RI DEFGRID1 loosescf d4 GCP(DFT/SV(P)) printgap
|  2> %output
|  3>     printlevel normal
|  4> end
|  5> * xyz 0 1
|  6> C -1.93087633 -0.9815707035 -0.7592725879
|  7> C -1.2675259696 -0.1716349123 0.3620124643
|  8> H -2.0223445532 0.0395200917 1.1266909718
|  9> C -0.7317616025 1.1736346351 -0.166887542
| 10> H -0.7872915038 1.1955819351 -1.2676245038
| 11> C 0.7443070381 1.3359942168 0.2091200081
| 12> H 0.8389811713 1.4002077506 1.3038122441
| 13> C 1.5064709977 0.1007975243 -0.2786472277
| 14> H 1.3413829666 -0.0142488298 -1.3596389664
| 15> C 0.9442730146 -1.1447539478 0.4368342475
| 16> H 1.6173737166 -1.404021675 1.2703828703
| 17> O -0.2831476024 -0.9078480783 1.074639393
| 18> O 0.8840770349 -2.1828363961 -0.4938320859
| 19> O 2.868927537 0.3026375956 -0.0030856385
| 20> O 1.2160608157 2.5121056986 -0.3959889635
| 21> O -1.5242909994 2.2024616125 0.3649208153
| 22> O -2.5538475365 -2.1131872268 -0.197457241
| 23> H -1.1709442762 -1.2800990497 -1.4926853233
| 24> H -2.6678216413 -0.3274596421 -1.2409653875
| 25> H 0.5445986692 -2.9847349144 -0.0671589482
| 26> H 3.3980151234 -0.3928097205 -0.4184809124
| 27> H 2.1796531825 2.5401921257 -0.293522745
| 28> H -1.1199022127 3.0525314806 0.1307767791
| 29> H -3.0393510644 -2.5851339782 -0.8890045256
| 30> *
| 31>
| 32>                          ****END OF INPUT****

CARTESIAN COORDINATES (ANGSTROEM)
---------------------------------
  C     -1.930876   -0.981571   -0.759273
  C     -1.267526   -0.171635    0.362012
  H     -2.022345    0.039520    1.126691
  C     -0.731762    1.173635   -0.166888
  H     -0.787292    1.195582   -1.267625
  C      0.744307    1.335994    0.209120
  H      0.838981    1.400208    1.303812
  C      1.506471    0.100798   -0.278647
  H      1.341383   -0.014249   -1.359639
  C      0.944273   -1.144754    0.436834
  H      1.617374   -1.404022    1.270383
  O     -0.283148   -0.907848    1.074639
  O      0.884077   -2.182836   -0.493832
  O      2.868928    0.302638   -0.003086
  O      1.216061    2.512106   -0.395989
  O     -1.524291    2.202462    0.364921
  O     -2.553848   -2.113187   -0.197457
  H     -1.170944   -1.280099   -1.492685
  H     -2.667822   -0.327460   -1.240965
  H      0.544599   -2.984735   -0.067159
  H      3.398015   -0.392810   -0.418481
  H      2.179653    2.540192   -0.293523
  H     -1.119902    3.052531    0.130777
  H     -3.039351   -2.585134   -0.889005

 Total Charge           Charge          ....    0
 Multiplicity           Mult            ....    1
 Number of Electrons    NEL             ....   96
 Basis Dimension        Dim             ....  192

ORBITAL ENERGIES
----------------

  NO   OCC          E(Eh)            E(eV)
   0   2.0000     -18.765907      -510.6463
   1   2.0000     -18.763572      -510.5828
   2   2.0000     -18.760201      -510.4910
   3   2.0000     -18.751884      -510.2647
   4   2.0000     -18.745411      -510.0886
   5   2.0000     -18.743417      -510.0343
   6   2.0000      -9.982489      -271.6373
   7   2.0000      -9.943346      -270.5722
   8   2.0000      -9.939284      -270.4617
   9   2.0000      -9.938113      -270.4298
  10   2.0000      -9.937751      -270.4199
  11   2.0000      -9.927327      -270.1363
  12   2.0000      -0.977431       -26.5972
  13   2.0000      -0.947260       -25.7762
  14   2.0000      -0.932670       -25.3793
  15   2.0000      -0.921041       -25.0628
  16   2.0000      -0.912938       -24.8423
  17   2.0000      -0.907241       -24.6873
  18   2.0000      -0.704060       -19.1584
  19   2.0000      -0.691252       -18.8099
  20   2.0000      -0.617467       -16.8021
  21   2.0000      -0.579397       -15.7662
  22   2.0000      -0.562775       -15.3139
  23   2.0000      -0.523626       -14.2486
  24   2.0000      -0.504512       -13.7285
  25   2.0000      -0.478438       -13.0190
  26   2.0000      -0.462785       -12.5930
  27   2.0000      -0.458193       -12.4681
  28   2.0000      -0.443693       -12.0735
  29   2.0000      -0.436117       -11.8673
  30   2.0000      -0.410833       -11.1793
  31   2.0000      -0.393747       -10.7144
  32   2.0000      -0.387259       -10.5378
  33   2.0000      -0.377321       -10.2674
  34   2.0000      -0.355705        -9.6792
  35   2.0000      -0.345501        -9.4016
  36   2.0000      -0.328557        -8.9405
  37   2.0000      -0.312824        -8.5124
  38   2.0000      -0.306023        -8.3273
  39   2.0000      -0.287771        -7.8306
  40   2.0000      -0.282985        -7.7004
  41   2.0000      -0.265472        -7.2239
  42   2.0000      -0.246295        -6.7020
  43   2.0000      -0.233563        -6.3556
  44   2.0000      -0.226600        -6.1661
  45   2.0000      -0.218442        -5.9441
  46   2.0000      -0.214902        -5.8478
  47   2.0000      -0.208499        -5.6735
  48   0.0000       0.016157         0.4397
  49   0.0000       0.023848         0.6489
  50   0.0000       0.040605         1.1049
  51   0.0000       0.048027         1.3069
  52   0.0000       0.054711         1.4888

MULLIKEN ATOMIC CHARGES
-----------------------
   0 C :   -0.017283
   1 C :    0.085546
   2 H :    0.086585
   3 C :    0.052564
   4 H :    0.052830
   5 C :    0.058788
   6 H :    0.065421
   7 C :   -0.006969
   8 H :    0.062964
   9 C :    0.205120
  10 H :    0.057120
  11 O :   -0.305339
  12 O :   -0.401132
  13 O :   -0.418977
  14 O :   -0.429396
  15 O :   -0.415977
  16 O :   -0.432386
  17 H :    0.083678
  18 H :    0.083550
  19 H :    0.305846
  20 H :    0.312068
  21 H :    0.309216
  22 H :    0.306824
  23 H :    0.299336
Sum of atomic charges:    0.0000000

LOEWDIN ATOMIC CHARGES
----------------------
   0 C :   -0.145876
   1 C :   -0.049361
   2 H :    0.129935
   3 C :   -0.062320
   4 H :    0.100523
   5 C :   -0.076118
   6 H :    0.110112
   7 C :   -0.089349
   8 H :    0.106763
   9 C :   -0.009261
  10 H :    0.097637
  11 O :   -0.136774
  12 O :   -0.314325
  13 O :   -0.318546
  14 O :   -0.324574
  15 O :   -0.317980
  16 O :   -0.343948
  17 H :    0.097840
  18 H :    0.102568
  19 H :    0.287634
  20 H :    0.294189
  21 H :    0.287970
  22 H :    0.287115
  23 H :    0.286146

  Mayer bond orders larger than 0.100000
B(  0-C ,  1-C ) :   1.0596 B(  0-C , 16-O ) :   1.0945 B(  0-C , 17-H ) :   0.8929
B(  0-C , 18-H ) :   0.9125 B(  1-C ,  2-H ) :   0.8837 B(  1-C ,  3-C ) :   0.9793
B(  1-C , 11-O ) :   1.0211 B(  3-C ,  4-H ) :   0.8816 B(  3-C ,  5-C ) :   1.0340
B(  3-C , 15-O ) :   1.0801 B(  5-C ,  6-H ) :   0.8674 B(  5-C ,  7-C ) :   1.0135
B(  5-C , 14-O ) :   1.0813 B(  7-C ,  8-H ) :   0.8778 B(  7-C ,  9-C ) :   0.9911
B(  7-C , 13-O ) :   1.0723 B(  9-C , 10-H ) :   0.8879 B(  9-C , 11-O ) :   1.0799
B(  9-C , 12-O ) :   1.1089 B( 12-O , 19-H ) :   0.8358 B( 13-O , 20-H ) :   0.8445
B( 14-O , 21-H ) :   0.8322 B( 15-O , 22-H ) :   0.8383 B( 16-O , 23-H ) :   0.8526

Dispersion correction           -0.024432678
FINAL SINGLE POINT ENERGY      -685.694261588117

DIPOLE MOMENT
-------------

Method             : SCF
Type of density    : Electron Density
Multiplicity       :   1
Irrep              :   0
Energy             :  -685.8235215881757085 Eh
Relativity type    :
Basis              : AO
                                X                 Y                 Z
Electronic contribution:      1.428187214       0.116516737       2.139079754
Nuclear contribution   :     -0.823763161      -0.716219756      -2.994549276
                        -----------------------------------------
Total Dipole Moment    :      0.604424053      -0.599703019      -0.855469522
                        -----------------------------------------
Magnitude (a.u.)       :      1.206979805
Magnitude (Debye)      :      3.067898855

Rotational constants in cm-1:             0.040237             0.027898             0.018374
Rotational constants in MHz :          1206.268602           836.351843           550.825241

                             ****ORCA TERMINATED NORMALLY****
TOTAL RUN TIME: 0 days 0 hours 0 minutes 12 seconds 80 msec
