                         Program Version 6.0.0  -   RELEASE  -
|  1> ! wb97x-v def2-tzvp def2/J RIJCOSX DEFGRID2 scfconv7 GCP(DFT/TZ) printgap
|  2> %output
|  3>     printlevel normal
|  4> end
|  5> * xyz 0 1
|  6> C -2.5899359530815103 -0.6130412145479771 -0.2890030771458834
|  7> C -1.21427149034971 -0.2675405671118096 0.2439880053612348
|  8> H -1.2382822642839315 -0.22584916544306116 1.3450700545061889
|  9> C -0.6925988586949227 1.0587650804725937 -0.30558218633748097
| 10> H -0.7049467518465807 1.0167724746268632 -1.4077846493119188
| 11> C 0.7429987500769003 1.292703577588818 0.16419797139097897
| 12> H 0.7376821175574467 1.4296881195129525 1.2533861863644047
| 13> C 1.6215108902289301 0.09652169366789574 -0.17573972462800205
| 14> H 1.7048001413333558 -0.0006480530935578313 -1.27164908540846
| 15> C 0.9807341740480157 -1.1833459941364683 0.36893361526011703
| 16> H 0.9268829654165928 -1.1506496223781106 1.4672192952658925
| 17> O -0.333465026441046 -1.3242073678359823 -0.17843832242183555
| 18> O 1.7169324465495548 -2.330535520632417 0.03573806116170305
| 19> O 2.904704879174078 0.3099305307438003 0.412878819928651
| 20> O 1.2582858675367052 2.516506711717722 -0.37259861564030283
| 21> O -1.5498553180070116 2.102019587359616 0.1629039307191501
| 22> O -3.102749316370913 -1.8184727830785223 0.2903096358182634
| 23> H -2.5435416042008656 -0.6948529371665625 -1.384725143877859
| 24> H -3.2909900185912506 0.18277351697170463 -0.027621838591787445
| 25> H 1.8936808741373619 -2.3117885409116825 -0.9174652279417995
| 26> H 3.480068346699767 -0.41004604414050705 0.1207900211846883
| 27> H 1.2915425464157275 2.4238819330904415 -1.3363678372797185
| 28> H -1.1322469731283658 2.9389312167108312 -0.08612843208914625
| 29> H -2.5006494078205286 -2.53252447038631 0.04226107925346679
| 30> *
| 31>
| 32>                          ****END OF INPUT****

CARTESIAN COORDINATES (ANGSTROEM)
---------------------------------
  C     -2.589936   -0.613041   -0.289003
  C     -1.214271   -0.267541    0.243988
  H     -1.238282   -0.225849    1.345070
  C     -0.692599    1.058765   -0.305582
  H     -0.704947    1.016772   -1.407785
  C      0.742999    1.292704    0.164198
  H      0.737682    1.429688    1.253386
  C      1.621511    0.096522   -0.175740
  H      1.704800   -0.000648   -1.271649
  C      0.980734   -1.183346    0.368934
  H      0.926883   -1.150650    1.467219
  O     -0.333465   -1.324207   -0.178438
  O      1.716932   -2.330536    0.035738
  O      2.904705    0.309931    0.412879
  O      1.258286    2.516507   -0.372599
  O     -1.549855    2.102020    0.162904
  O     -3.102749   -1.818473    0.290310
  H     -2.543542   -0.694853   -1.384725
  H     -3.290990    0.182774   -0.027622
  H      1.893681   -2.311789   -0.917465
  H      3.480068   -0.410046    0.120790
  H      1.291543    2.423882   -1.336368
  H     -1.132247    2.938931   -0.086128
  H     -2.500649   -2.532524    0.042261

 Total Charge           Charge          ....    0
 Multiplicity           Mult            ....    1
 Number of Electrons    NEL             ....   96
 Basis Dimension        Dim             ....  444

ORBITAL ENERGIES
----------------

  NO   OCC          E(Eh)            E(eV)
   0   2.0000     -21.706422      -590.6618
   1   2.0000     -21.700235      -590.4934
   2   2.0000     -21.696171      -590.3828
   3   2.0000     -21.692167      -590.2739
   4   2.0000     -21.688430      -590.1722
   5   2.0000     -21.670698      -589.6897
   6   2.0000     -12.167193      -331.0862
   7   2.0000     -12.123755      -329.9041
   8   2.0000     -12.119513      -329.7887
   9   2.0000     -12.118281      -329.7552
  10   2.0000     -12.114503      -329.6524
  11   2.0000     -12.096608      -329.1654
  12   2.0000      -1.735172       -47.2164
  13   2.0000      -1.701974       -46.3131
  14   2.0000      -1.695797       -46.1450
  15   2.0000      -1.691278       -46.0220
  16   2.0000      -1.688032       -45.9337
  17   2.0000      -1.670366       -45.4530
  18   2.0000      -1.346759       -36.6472
  19   2.0000      -1.330866       -36.2147
  20   2.0000      -1.238638       -33.7051
  21   2.0000      -1.213876       -33.0312
  22   2.0000      -1.174728       -31.9660
  23   2.0000      -1.139171       -30.9984
  24   2.0000      -1.100238       -29.9390
  25   2.0000      -1.079151       -29.3652
  26   2.0000      -1.062749       -28.9189
  27   2.0000      -1.045335       -28.4450
  28   2.0000      -1.031822       -28.0773
  29   2.0000      -1.014203       -27.5979
  30   2.0000      -1.004997       -27.3474
  31   2.0000      -1.002006       -27.2660
  32   2.0000      -0.989470       -26.9248
  33   2.0000      -0.968630       -26.3578
  34   2.0000      -0.965870       -26.2826
  35   2.0000      -0.953214       -25.9383
  36   2.0000      -0.946666       -25.7601
  37   2.0000      -0.941944       -25.6316
  38   2.0000      -0.931635       -25.3511
  39   2.0000      -0.916496       -24.9391
  40   2.0000      -0.909649       -24.7528
  41   2.0000      -0.895942       -24.3798
  42   2.0000      -0.849584       -23.1184
  43   2.0000      -0.839185       -22.8354
  44   2.0000      -0.833906       -22.6917
  45   2.0000      -0.816022       -22.2051
  46   2.0000      -0.803572       -21.8663
  47   2.0000      -0.779078       -21.1998
  48   0.0000      -0.249102        -6.7784
  49   0.0000      -0.206424        -5.6171
  50   0.0000      -0.189578        -5.1587
  51   0.0000      -0.159587        -4.3426
  52   0.0000      -0.127929        -3.4811

MULLIKEN ATOMIC CHARGES
-----------------------
   0 C :   -0.013425
   1 C :    0.046736
   2 H :    0.087055
   3 C :    0.048767
   4 H :    0.062187
   5 C :    0.039822
   6 H :    0.108003
   7 C :   -0.002802
   8 H :    0.066070
   9 C :    0.096320
  10 H :    0.097027
  11 O :   -0.273876
  12 O :   -0.404551
  13 O :   -0.396092
  14 O :   -0.422771
  15 O :   -0.434013
  16 O :   -0.449236
  17 H :    0.084235
  18 H :    0.124781
  19 H :    0.305863
  20 H :    0.306101
  21 H :    0.299573
  22 H :    0.314624
  23 H :    0.309604
Sum of atomic charges:   -0.0000000

LOEWDIN ATOMIC CHARGES
----------------------
   0 C :   -0.306563
   1 C :   -0.297561
   2 H :    0.147525
   3 C :   -0.313291
   4 H :    0.136164
   5 C :   -0.308552
   6 H :    0.158528
   7 C :   -0.330862
   8 H :    0.133147
   9 C :   -0.406126
  10 H :    0.137853
  11 O :    0.179053
  12 O :    0.011538
  13 O :    0.001100
  14 O :   -0.009283
  15 O :   -0.007630
  16 O :   -0.048767
  17 H :    0.119550
  18 H :    0.137633
  19 H :    0.175897
  20 H :    0.172320
  21 H :    0.171553
  22 H :    0.176176
  23 H :    0.170598

  Mayer bond orders larger than 0.100000
B(  0-C ,  1-C ) :   0.9820 B(  0-C , 16-O ) :   1.0242 B(  0-C , 17-H ) :   0.9676
B(  0-C , 18-H ) :   0.9649 B(  1-C ,  2-H ) :   0.9562 B(  1-C ,  3-C ) :   0.9321
B(  1-C , 11-O ) :   0.9591 B(  3-C ,  4-H ) :   0.9380 B(  3-C ,  5-C ) :   0.9890
B(  3-C , 15-O ) :   1.0832 B(  5-C ,  6-H ) :   0.9558 B(  5-C ,  7-C ) :   0.9827
B(  5-C , 14-O ) :   0.9929 B(  7-C ,  8-H ) :   0.9378 B(  7-C ,  9-C ) :   0.9611
B(  7-C , 13-O ) :   1.1490 B(  9-C , 10-H ) :   0.9768 B(  9-C , 11-O ) :   1.0327
B(  9-C , 12-O ) :   1.1182 B( 12-O , 19-H ) :   0.8889 B( 13-O , 20-H ) :   0.8904
B( 14-O , 21-H ) :   0.8939 B( 15-O , 22-H ) :   0.8804 B( 16-O , 23-H ) :   0.8929

FINAL SINGLE POINT ENERGY      -687.244474455738

DIPOLE MOMENT
-------------

Method             : SCF
Type of density    : Electron Density
Multiplicity       :   1
Irrep              :   0
Energy             :  -687.2632841673382700 Eh
Relativity type    :
Basis              : AO
                                X                 Y                 Z
Electronic contribution:      2.033629335      -0.785008076       0.874021079
Nuclear contribution   :     -1.219913733       0.832611163      -2.280390795
                        -----------------------------------------
Total Dipole Moment    :      0.813715603       0.047603086      -1.406369716
                        -----------------------------------------
Magnitude (a.u.)       :      1.625507586
Magnitude (Debye)      :      4.131711932

Rotational constants in cm-1:             0.038671             0.025997             0.016295
Rotational constants in MHz :          1159.322904           779.365202           488.519726

                             ****ORCA TERMINATED NORMALLY****
TOTAL RUN TIME: 0 days 0 hours 4 minutes 49 seconds 663 msec
