                         Program Version 6.0.0  -   RELEASE  -
|  1> ! wb97x-v def2-tzvp def2/J RIJCOSX DEFGRID2 scfconv7 GCP(DFT/TZ) printgap
|  2> %output
|  3>     printlevel normal
|  4> end
|  5> %cpcm
|  6>     smd true
|  7>     smdsolvent "water"
|  8> end
|  9> * xyz 0 1
| 10> C -2.5899359530815103 -0.6130412145479771 -0.2890030771458834
| 11> C -1.21427149034971 -0.2675405671118096 0.2439880053612348
| 12> H -1.2382822642839315 -0.22584916544306116 1.3450700545061889
| 13> C -0.6925988586949227 1.0587650804725937 -0.30558218633748097
| 14> H -0.7049467518465807 1.0167724746268632 -1.4077846493119188
| 15> C 0.7429987500769003 1.292703577588818 0.16419797139097897
| 16> H 0.7376821175574467 1.4296881195129525 1.2533861863644047
| 17> C 1.6215108902289301 0.09652169366789574 -0.17573972462800205
| 18> H 1.7048001413333558 -0.0006480530935578313 -1.27164908540846
| 19> C 0.9807341740480157 -1.1833459941364683 0.36893361526011703
| 20> H 0.9268829654165928 -1.1506496223781106 1.4672192952658925
| 21> O -0.333465026441046 -1.3242073678359823 -0.17843832242183555
| 22> O 1.7169324465495548 -2.330535520632417 0.03573806116170305
| 23> O 2.904704879174078 0.3099305307438003 0.412878819928651
| 24> O 1.2582858675367052 2.516506711717722 -0.37259861564030283
| 25> O -1.5498553180070116 2.102019587359616 0.1629039307191501
| 26> O -3.102749316370913 -1.8184727830785223 0.2903096358182634
| 27> H -2.5435416042008656 -0.6948529371665625 -1.384725143877859
| 28> H -3.2909900185912506 0.18277351697170463 -0.027621838591787445
| 29> H 1.8936808741373619 -2.3117885409116825 -0.9174652279417995
| 30> H 3.480068346699767 -0.41004604414050705 0.1207900211846883
| 31> H 1.2915425464157275 2.4238819330904415 -1.3363678372797185
| 32> H -1.1322469731283658 2.9389312167108312 -0.08612843208914625
| 33> H -2.5006494078205286 -2.53252447038631 0.04226107925346679
| 34> *
| 35>
| 36>                          ****END OF INPUT****

CARTESIAN COORDINATES (ANGSTROEM)
---------------------------------
  C     -2.589936   -0.613041   -0.289003
  C     -1.214271   -0.267541    0.243988
  H     -1.238282   -0.225849    1.345070
  C     -0.692599    1.058765   -0.305582
  H     -0.704947    1.016772   -1.407785
  C      0.742999    1.292704    0.164198
  H      0.737682    1.429688    1.253386
  C      1.621511    0.096522   -0.175740
  H      1.704800   -0.000648   -1.271649
  C      0.980734   -1.183346    0.368934
  H      0.926883   -1.150650    1.467219
  O     -0.333465   -1.324207   -0.178438
  O      1.716932   -2.330536    0.035738
  O      2.904705    0.309931    0.412879
  O      1.258286    2.516507   -0.372599
  O     -1.549855    2.102020    0.162904
  O     -3.102749   -1.818473    0.290310
  H     -2.543542   -0.694853   -1.384725
  H     -3.290990    0.182774   -0.027622
  H      1.893681   -2.311789   -0.917465
  H      3.480068   -0.410046    0.120790
  H      1.291543    2.423882   -1.336368
  H     -1.132247    2.938931   -0.086128
  H     -2.500649   -2.532524    0.042261

 Total Charge           Charge          ....    0
 Multiplicity           Mult            ....    1
 Number of Electrons    NEL             ....   96
 Basis Dimension        Dim             ....  444

ORBITAL ENERGIES
----------------

  NO   OCC          E(Eh)            E(eV)
   0   2.0000     -21.692939      -590.2949
   1   2.0000     -21.692636      -590.2866
   2   2.0000     -21.683914      -590.0493
   3   2.0000     -21.683544      -590.0392
   4   2.0000     -21.681847      -589.9931
   5   2.0000     -21.677358      -589.8709
   6   2.0000     -12.152479      -330.6858
   7   2.0000     -12.104691      -329.3854
   8   2.0000     -12.104365      -329.3765
   9   2.0000     -12.103632      -329.3566
  10   2.0000     -12.102482      -329.3253
  11   2.0000     -12.091300      -329.0210
  12   2.0000      -1.724350       -46.9220
  13   2.0000      -1.691536       -46.0290
  14   2.0000      -1.687461       -45.9182
  15   2.0000      -1.682147       -45.7735
  16   2.0000      -1.679447       -45.7001
  17   2.0000      -1.675944       -45.6047
  18   2.0000      -1.332932       -36.2709
  19   2.0000      -1.318874       -35.8884
  20   2.0000      -1.229760       -33.4635
  21   2.0000      -1.202023       -32.7087
  22   2.0000      -1.166701       -31.7475
  23   2.0000      -1.129498       -30.7352
  24   2.0000      -1.090239       -29.6669
  25   2.0000      -1.068766       -29.0826
  26   2.0000      -1.052385       -28.6369
  27   2.0000      -1.043593       -28.3976
  28   2.0000      -1.022232       -27.8163
  29   2.0000      -1.006974       -27.4011
  30   2.0000      -0.996506       -27.1163
  31   2.0000      -0.993475       -27.0338
  32   2.0000      -0.980665       -26.6853
  33   2.0000      -0.965064       -26.2607
  34   2.0000      -0.961590       -26.1662
  35   2.0000      -0.947535       -25.7837
  36   2.0000      -0.946010       -25.7422
  37   2.0000      -0.933631       -25.4054
  38   2.0000      -0.923386       -25.1266
  39   2.0000      -0.911053       -24.7910
  40   2.0000      -0.903381       -24.5823
  41   2.0000      -0.888549       -24.1786
  42   2.0000      -0.841277       -22.8923
  43   2.0000      -0.829392       -22.5689
  44   2.0000      -0.823978       -22.4216
  45   2.0000      -0.805435       -21.9170
  46   2.0000      -0.790096       -21.4996
  47   2.0000      -0.766061       -20.8456
  48   0.0000      -0.236534        -6.4364
  49   0.0000      -0.193083        -5.2541
  50   0.0000      -0.176937        -4.8147
  51   0.0000      -0.150372        -4.0918
  52   0.0000      -0.117400        -3.1946

MULLIKEN ATOMIC CHARGES
-----------------------
   0 C :   -0.014820
   1 C :    0.066830
   2 H :    0.101878
   3 C :    0.018044
   4 H :    0.110636
   5 C :    0.123801
   6 H :    0.117445
   7 C :    0.003601
   8 H :    0.123682
   9 C :    0.111103
  10 H :    0.120563
  11 O :   -0.330368
  12 O :   -0.495357
  13 O :   -0.516246
  14 O :   -0.529793
  15 O :   -0.525627
  16 O :   -0.549158
  17 H :    0.119067
  18 H :    0.130442
  19 H :    0.370952
  20 H :    0.362812
  21 H :    0.363821
  22 H :    0.358788
  23 H :    0.357906
Sum of atomic charges:   -0.0000000

LOEWDIN ATOMIC CHARGES
----------------------
   0 C :   -0.306964
   1 C :   -0.295854
   2 H :    0.153083
   3 C :   -0.300457
   4 H :    0.152297
   5 C :   -0.307623
   6 H :    0.159909
   7 C :   -0.315008
   8 H :    0.154194
   9 C :   -0.404634
  10 H :    0.143827
  11 O :    0.162979
  12 O :   -0.018743
  13 O :   -0.039882
  14 O :   -0.045628
  15 O :   -0.040014
  16 O :   -0.088102
  17 H :    0.129582
  18 H :    0.137150
  19 H :    0.201625
  20 H :    0.193145
  21 H :    0.197524
  22 H :    0.191041
  23 H :    0.186554

  Mayer bond orders larger than 0.100000
B(  0-C ,  1-C ) :   0.9675 B(  0-C , 16-O ) :   0.9826 B(  0-C , 17-H ) :   0.9705
B(  0-C , 18-H ) :   0.9661 B(  1-C ,  2-H ) :   0.9474 B(  1-C ,  3-C ) :   0.9616
B(  1-C , 11-O ) :   0.9488 B(  3-C ,  4-H ) :   0.9505 B(  3-C ,  5-C ) :   0.9937
B(  3-C , 15-O ) :   1.0313 B(  5-C ,  6-H ) :   0.9372 B(  5-C ,  7-C ) :   0.9779
B(  5-C , 14-O ) :   0.9798 B(  7-C ,  8-H ) :   0.9569 B(  7-C ,  9-C ) :   0.9738
B(  7-C , 13-O ) :   1.0723 B(  9-C , 10-H ) :   0.9721 B(  9-C , 11-O ) :   1.0050
B(  9-C , 12-O ) :   1.1135 B( 12-O , 19-H ) :   0.8486 B( 13-O , 20-H ) :   0.8588
B( 14-O , 21-H ) :   0.8595 B( 15-O , 22-H ) :   0.8554 B( 16-O , 23-H ) :   0.8634

FINAL SINGLE POINT ENERGY      -687.287888573702

DIPOLE MOMENT
-------------

Method             : SCF
Type of density    : Electron Density
Multiplicity       :   1
Irrep              :   0
Energy             :  -687.3066982853023319 Eh
Relativity type    :
Basis              : AO
                                X                 Y                 Z
Electronic contribution:      2.298171711      -0.803913026       0.195898172
Nuclear contribution   :     -1.219913733       0.832611163      -2.280390795
                        -----------------------------------------
Total Dipole Moment    :      1.078257978       0.028698136      -2.084492623
                        -----------------------------------------
Magnitude (a.u.)       :      2.347035012
Magnitude (Debye)      :      5.965688899

Rotational constants in cm-1:             0.038671             0.025997             0.016295
Rotational constants in MHz :          1159.322904           779.365202           488.519726

                             ****ORCA TERMINATED NORMALLY****
TOTAL RUN TIME: 0 days 0 hours 5 minutes 24 seconds 708 msec
