                         Program Version 6.0.0  -   RELEASE  -
|  1> ! r2scan-3c def2/J RI DEFGRID2 scfconv6 printgap
|  2> %output
|  3>     printlevel normal
|  4> end
|  5> * xyz 0 1
|  6> C -2.0972996484 -0.5746676982 -0.7099253783
|  7> C -1.3608206151 -0.3065608668 0.6060640359
|  8> C -0.0092713979 0.2879057293 0.3090500398
|  9> O 0.2562528934 1.4714104718 0.3533791817
| 10> O 0.8630336668 -0.6453205304 -0.0506669463
| 11> C 2.1833698364 -0.2382483841 -0.4194021101
| 12> H -2.2181411695 0.3494805292 -1.2702004468
| 13> H -1.5377979627 -1.2822086838 -1.3161004852
| 14> H -3.0794989311 -0.9879167219 -0.5018447588
| 15> H -1.222060653 -1.241617252 1.1470581587
| 16> H -1.9224274297 0.4007595969 1.2149326415
| 17> H 2.8107452359 -0.1992703867 0.4711905828
| 18> H 2.1535452024 0.7474370319 -0.885214837
| 19> H 2.5493480147 -0.9903893034 -1.1122894682
| 20> *
| 21>
| 22>                          ****END OF INPUT****

CARTESIAN COORDINATES (ANGSTROEM)
---------------------------------
  C     -2.097300   -0.574668   -0.709925
  C     -1.360821   -0.306561    0.606064
  C     -0.009271    0.287906    0.309050
  O      0.256253    1.471410    0.353379
  O      0.863034   -0.645321   -0.050667
  C      2.183370   -0.238248   -0.419402
  H     -2.218141    0.349481   -1.270200
  H     -1.537798   -1.282209   -1.316100
  H     -3.079499   -0.987917   -0.501845
  H     -1.222061   -1.241617    1.147058
  H     -1.922427    0.400760    1.214933
  H      2.810745   -0.199270    0.471191
  H      2.153545    0.747437   -0.885215
  H      2.549348   -0.990389   -1.112289

 Total Charge           Charge          ....    0
 Multiplicity           Mult            ....    1
 Number of Electrons    NEL             ....   48
 Basis Dimension        Dim             ....  164

ORBITAL ENERGIES
----------------

  NO   OCC          E(Eh)            E(eV)
   0   2.0000     -18.999808      -517.0111
   1   2.0000     -18.928746      -515.0774
   2   2.0000     -10.152624      -276.2669
   3   2.0000     -10.086748      -274.4744
   4   2.0000     -10.044713      -273.3305
   5   2.0000     -10.032611      -273.0012
   6   2.0000      -1.073703       -29.2169
   7   2.0000      -0.976072       -26.5603
   8   2.0000      -0.762581       -20.7509
   9   2.0000      -0.696043       -18.9403
  10   2.0000      -0.613752       -16.7010
  11   2.0000      -0.534810       -14.5529
  12   2.0000      -0.470776       -12.8105
  13   2.0000      -0.452272       -12.3069
  14   2.0000      -0.448250       -12.1975
  15   2.0000      -0.409771       -11.1504
  16   2.0000      -0.402040       -10.9401
  17   2.0000      -0.378220       -10.2919
  18   2.0000      -0.351773        -9.5722
  19   2.0000      -0.332898        -9.0586
  20   2.0000      -0.328565        -8.9407
  21   2.0000      -0.317142        -8.6299
  22   2.0000      -0.273515        -7.4427
  23   2.0000      -0.235024        -6.3953
  24   0.0000      -0.015456        -0.4206
  25   0.0000       0.063998         1.7415
  26   0.0000       0.095069         2.5869
  27   0.0000       0.122993         3.3468
  28   0.0000       0.125310         3.4099

MULLIKEN ATOMIC CHARGES
-----------------------
   0 C :   -0.470527
   1 C :   -0.285904
   2 C :    0.412019
   3 O :   -0.428464
   4 O :   -0.195337
   5 C :   -0.292669
   6 H :    0.157566
   7 H :    0.157789
   8 H :    0.153428
   9 H :    0.151841
  10 H :    0.162393
  11 H :    0.152309
  12 H :    0.176724
  13 H :    0.148832
Sum of atomic charges:    0.0000000

LOEWDIN ATOMIC CHARGES
----------------------
   0 C :   -0.392117
   1 C :   -0.236093
   2 C :    0.352233
   3 O :   -0.429009
   4 O :   -0.604036
   5 C :   -0.044802
   6 H :    0.158953
   7 H :    0.158432
   8 H :    0.153177
   9 H :    0.174298
  10 H :    0.174526
  11 H :    0.172757
  12 H :    0.186554
  13 H :    0.175128

  Mayer bond orders larger than 0.100000
B(  0-C ,  1-C ) :   0.8959 B(  0-C ,  6-H ) :   0.9739 B(  0-C ,  7-H ) :   0.9770
B(  0-C ,  8-H ) :   0.9706 B(  1-C ,  2-C ) :   0.9642 B(  1-C ,  9-H ) :   0.9678
B(  1-C , 10-H ) :   0.9748 B(  2-C ,  3-O ) :   1.8370 B(  2-C ,  4-O ) :   1.0426
B(  4-O ,  5-C ) :   0.8462 B(  5-C , 11-H ) :   0.9612 B(  5-C , 12-H ) :   0.9645
B(  5-C , 13-H ) :   0.9691

Dispersion correction           -0.003005827
FINAL SINGLE POINT ENERGY      -307.630909073543

DIPOLE MOMENT
-------------

Method             : SCF
Type of density    : Electron Density
Multiplicity       :   1
Irrep              :   0
Energy             :  -307.6372865575974629 Eh
Relativity type    :
Basis              : AO
                                X                 Y                 Z
Electronic contribution:      2.356980007       2.186677468       1.911560036
Nuclear contribution   :     -2.297179228      -2.993378504      -2.108709295
                        -----------------------------------------
Total Dipole Moment    :      0.059800779      -0.806701036      -0.197149259
                        -----------------------------------------
Magnitude (a.u.)       :      0.832592652
Magnitude (Debye)      :      2.116282338

Rotational constants in cm-1:             0.218475             0.081865             0.068143
Rotational constants in MHz :          6549.717778          2454.249651          2042.865471

                             ****ORCA TERMINATED NORMALLY****
TOTAL RUN TIME: 0 days 0 hours 0 minutes 16 seconds 709 msec
