                         Program Version 6.0.0  -   RELEASE  -
|  1> ! r2scan-3c def2/J RI DEFGRID2 scfconv6 printgap
|  2> %output
|  3>     printlevel normal
|  4> end
|  5> %cpcm
|  6>     smd true
|  7>     smdsolvent "water"
|  8> end
|  9> * xyz 0 1
| 10> C -2.0972996484 -0.5746676982 -0.7099253783
| 11> C -1.3608206151 -0.3065608668 0.6060640359
| 12> C -0.0092713979 0.2879057293 0.3090500398
| 13> O 0.2562528934 1.4714104718 0.3533791817
| 14> O 0.8630336668 -0.6453205304 -0.0506669463
| 15> C 2.1833698364 -0.2382483841 -0.4194021101
| 16> H -2.2181411695 0.3494805292 -1.2702004468
| 17> H -1.5377979627 -1.2822086838 -1.3161004852
| 18> H -3.0794989311 -0.9879167219 -0.5018447588
| 19> H -1.222060653 -1.241617252 1.1470581587
| 20> H -1.9224274297 0.4007595969 1.2149326415
| 21> H 2.8107452359 -0.1992703867 0.4711905828
| 22> H 2.1535452024 0.7474370319 -0.885214837
| 23> H 2.5493480147 -0.9903893034 -1.1122894682
| 24> *
| 25>
| 26>                          ****END OF INPUT****

CARTESIAN COORDINATES (ANGSTROEM)
---------------------------------
  C     -2.097300   -0.574668   -0.709925
  C     -1.360821   -0.306561    0.606064
  C     -0.009271    0.287906    0.309050
  O      0.256253    1.471410    0.353379
  O      0.863034   -0.645321   -0.050667
  C      2.183370   -0.238248   -0.419402
  H     -2.218141    0.349481   -1.270200
  H     -1.537798   -1.282209   -1.316100
  H     -3.079499   -0.987917   -0.501845
  H     -1.222061   -1.241617    1.147058
  H     -1.922427    0.400760    1.214933
  H      2.810745   -0.199270    0.471191
  H      2.153545    0.747437   -0.885215
  H      2.549348   -0.990389   -1.112289

 Total Charge           Charge          ....    0
 Multiplicity           Mult            ....    1
 Number of Electrons    NEL             ....   48
 Basis Dimension        Dim             ....  164

ORBITAL ENERGIES
----------------

  NO   OCC          E(Eh)            E(eV)
   0   2.0000     -19.004456      -517.1375
   1   2.0000     -18.944019      -515.4930
   2   2.0000     -10.162342      -276.5314
   3   2.0000     -10.076024      -274.1826
   4   2.0000     -10.037981      -273.1473
   5   2.0000     -10.022355      -272.7221
   6   2.0000      -1.079902       -29.3856
   7   2.0000      -0.989229       -26.9183
   8   2.0000      -0.757412       -20.6102
   9   2.0000      -0.689511       -18.7625
  10   2.0000      -0.606291       -16.4980
  11   2.0000      -0.532393       -14.4872
  12   2.0000      -0.469910       -12.7869
  13   2.0000      -0.457759       -12.4563
  14   2.0000      -0.450478       -12.2581
  15   2.0000      -0.409554       -11.1445
  16   2.0000      -0.394523       -10.7355
  17   2.0000      -0.375818       -10.2265
  18   2.0000      -0.346181        -9.4201
  19   2.0000      -0.328886        -8.9494
  20   2.0000      -0.320584        -8.7235
  21   2.0000      -0.318627        -8.6703
  22   2.0000      -0.279826        -7.6145
  23   2.0000      -0.250598        -6.8191
  24   0.0000      -0.022863        -0.6221
  25   0.0000       0.069760         1.8983
  26   0.0000       0.103309         2.8112
  27   0.0000       0.133123         3.6225
  28   0.0000       0.136878         3.7246

MULLIKEN ATOMIC CHARGES
-----------------------
   0 C :   -0.492387
   1 C :   -0.302464
   2 C :    0.451212
   3 O :   -0.515079
   4 O :   -0.208913
   5 C :   -0.318786
   6 H :    0.164410
   7 H :    0.166597
   8 H :    0.172594
   9 H :    0.175461
  10 H :    0.173472
  11 H :    0.179371
  12 H :    0.178032
  13 H :    0.176480
Sum of atomic charges:    0.0000000

LOEWDIN ATOMIC CHARGES
----------------------
   0 C :   -0.393724
   1 C :   -0.233587
   2 C :    0.361862
   3 O :   -0.491299
   4 O :   -0.604580
   5 C :   -0.041081
   6 H :    0.160703
   7 H :    0.161175
   8 H :    0.160457
   9 H :    0.184191
  10 H :    0.179027
  11 H :    0.182243
  12 H :    0.187269
  13 H :    0.187344

  Mayer bond orders larger than 0.100000
B(  0-C ,  1-C ) :   0.8874 B(  0-C ,  6-H ) :   0.9708 B(  0-C ,  7-H ) :   0.9733
B(  0-C ,  8-H ) :   0.9657 B(  1-C ,  2-C ) :   0.9636 B(  1-C ,  9-H ) :   0.9586
B(  1-C , 10-H ) :   0.9710 B(  2-C ,  3-O ) :   1.7671 B(  2-C ,  4-O ) :   1.0709
B(  4-O ,  5-C ) :   0.8297 B(  5-C , 11-H ) :   0.9535 B(  5-C , 12-H ) :   0.9608
B(  5-C , 13-H ) :   0.9594

Dispersion correction           -0.003005827
FINAL SINGLE POINT ENERGY      -307.635866161298

DIPOLE MOMENT
-------------

Method             : SCF
Type of density    : Electron Density
Multiplicity       :   1
Irrep              :   0
Energy             :  -307.6422436453528348 Eh
Relativity type    :
Basis              : AO
                                X                 Y                 Z
Electronic contribution:      2.362872624       1.849252941       1.862304496
Nuclear contribution   :     -2.297179228      -2.993378504      -2.108709295
                        -----------------------------------------
Total Dipole Moment    :      0.065693395      -1.144125564      -0.246404799
                        -----------------------------------------
Magnitude (a.u.)       :      1.172200602
Magnitude (Debye)      :      2.979497147

Rotational constants in cm-1:             0.218475             0.081865             0.068143
Rotational constants in MHz :          6549.717778          2454.249651          2042.865471

                             ****ORCA TERMINATED NORMALLY****
TOTAL RUN TIME: 0 days 0 hours 0 minutes 21 seconds 236 msec
