                         Program Version 6.0.0  -   RELEASE  -
|  1> ! r2scan-3c def2/J RI DEFGRID2 scfconv6 printgap
|  2> %output
|  3>     printlevel normal
|  4> end
|  5> * xyz 0 1
|  6> C -2.2305599905 0.4185900199 -5.3461e-06
|  7> C -1.1992006781 -0.6858334772 9.5382e-06
|  8> Br 0.6416580219 0.0470964415 -9.417e-07
|  9> H -2.128108375 1.0444921229 -0.8833308668
| 10> H -3.2223171151 -0.0276771617 -0.00033407
| 11> H -2.1286036723 1.0445998723 0.8833949435
| 12> H -1.2591368931 -1.3053982626 -0.8924174483
| 13> H -1.2592370554 -1.3050381654 0.8927121395
| 14> *
| 15>
| 16>                          ****END OF INPUT****

CARTESIAN COORDINATES (ANGSTROEM)
---------------------------------
  C     -2.230560    0.418590   -0.000005
  C     -1.199201   -0.685833    0.000010
  Br     0.641658    0.047096   -0.000001
  H     -2.128108    1.044492   -0.883331
  H     -3.222317   -0.027677   -0.000334
  H     -2.128604    1.044600    0.883395
  H     -1.259137   -1.305398   -0.892417
  H     -1.259237   -1.305038    0.892712

 Total Charge           Charge          ....    0
 Multiplicity           Mult            ....    1
 Number of Electrons    NEL             ....   52
 Basis Dimension        Dim             ....   99

ORBITAL ENERGIES
----------------

  NO   OCC          E(Eh)            E(eV)
   0   2.0000    -482.211171    -13121.6331
   1   2.0000     -62.283161     -1694.8110
   2   2.0000     -56.063661     -1525.5698
   3   2.0000     -56.060931     -1525.4955
   4   2.0000     -56.060789     -1525.4916
   5   2.0000     -10.097017      -274.7538
   6   2.0000     -10.041312      -273.2380
   7   2.0000      -8.615293      -234.4340
   8   2.0000      -6.422710      -174.7708
   9   2.0000      -6.409118      -174.4010
  10   2.0000      -6.409074      -174.3998
  11   2.0000      -2.520247       -68.5794
  12   2.0000      -2.516898       -68.4883
  13   2.0000      -2.516871       -68.4875
  14   2.0000      -2.506752       -68.2122
  15   2.0000      -2.506742       -68.2119
  16   2.0000      -0.783913       -21.3313
  17   2.0000      -0.697267       -18.9736
  18   2.0000      -0.589453       -16.0398
  19   2.0000      -0.446678       -12.1547
  20   2.0000      -0.418786       -11.3958
  21   2.0000      -0.378962       -10.3121
  22   2.0000      -0.347183        -9.4473
  23   2.0000      -0.330916        -9.0047
  24   2.0000      -0.251127        -6.8335
  25   2.0000      -0.250018        -6.8033
  26   0.0000      -0.028986        -0.7887
  27   0.0000       0.096922         2.6374
  28   0.0000       0.115006         3.1295
  29   0.0000       0.150289         4.0896
  30   0.0000       0.160717         4.3733

MULLIKEN ATOMIC CHARGES
-----------------------
   0 C :   -0.428850
   1 C :   -0.171036
   2 Br:   -0.186360
   3 H :    0.159078
   4 H :    0.145045
   5 H :    0.159083
   6 H :    0.161527
   7 H :    0.161512
Sum of atomic charges:   -0.0000000

LOEWDIN ATOMIC CHARGES
----------------------
   0 C :   -0.441558
   1 C :   -0.390301
   2 Br:    0.045605
   3 H :    0.158700
   4 H :    0.158116
   5 H :    0.158716
   6 H :    0.155362
   7 H :    0.155359

  Mayer bond orders larger than 0.100000
B(  0-C ,  1-C ) :   0.9326 B(  0-C ,  3-H ) :   0.9706 B(  0-C ,  4-H ) :   0.9524
B(  0-C ,  5-H ) :   0.9705 B(  1-C ,  2-Br) :   0.9702 B(  1-C ,  6-H ) :   0.9569
B(  1-C ,  7-H ) :   0.9570

Dispersion correction           -0.001390401
FINAL SINGLE POINT ENERGY     -2653.333242685058

DIPOLE MOMENT
-------------

Method             : SCF
Type of density    : Electron Density
Multiplicity       :   1
Irrep              :   0
Energy             : -2653.3360307389079935 Eh
Relativity type    :
Basis              : AO
                                X                 Y                 Z
Electronic contribution:     14.437142795       0.702656824      -0.000038839
Nuclear contribution   :    -15.337283983      -0.952381131       0.000031915
                        -----------------------------------------
Total Dipole Moment    :     -0.900141188      -0.249724307      -0.000006924
                        -----------------------------------------
Magnitude (a.u.)       :      0.934139384
Magnitude (Debye)      :      2.374393617

Rotational constants in cm-1:             1.006702             0.124041             0.115234
Rotational constants in MHz :         30180.175103          3718.663686          3454.630487

                             ****ORCA TERMINATED NORMALLY****
TOTAL RUN TIME: 0 days 0 hours 0 minutes 12 seconds 321 msec
