                         Program Version 6.0.0  -   RELEASE  -
|  1> ! r2scan-3c def2/J RI DEFGRID2 scfconv6 printgap
|  2> %output
|  3>     printlevel normal
|  4> end
|  5> %cpcm
|  6>     smd true
|  7>     smdsolvent "water"
|  8> end
|  9> * xyz 0 1
| 10> C -2.2305599905 0.4185900199 -5.3461e-06
| 11> C -1.1992006781 -0.6858334772 9.5382e-06
| 12> Br 0.6416580219 0.0470964415 -9.417e-07
| 13> H -2.128108375 1.0444921229 -0.8833308668
| 14> H -3.2223171151 -0.0276771617 -0.00033407
| 15> H -2.1286036723 1.0445998723 0.8833949435
| 16> H -1.2591368931 -1.3053982626 -0.8924174483
| 17> H -1.2592370554 -1.3050381654 0.8927121395
| 18> *
| 19>
| 20>                          ****END OF INPUT****

CARTESIAN COORDINATES (ANGSTROEM)
---------------------------------
  C     -2.230560    0.418590   -0.000005
  C     -1.199201   -0.685833    0.000010
  Br     0.641658    0.047096   -0.000001
  H     -2.128108    1.044492   -0.883331
  H     -3.222317   -0.027677   -0.000334
  H     -2.128604    1.044600    0.883395
  H     -1.259137   -1.305398   -0.892417
  H     -1.259237   -1.305038    0.892712

 Total Charge           Charge          ....    0
 Multiplicity           Mult            ....    1
 Number of Electrons    NEL             ....   52
 Basis Dimension        Dim             ....   99

ORBITAL ENERGIES
----------------

  NO   OCC          E(Eh)            E(eV)
   0   2.0000    -482.208847    -13121.5698
   1   2.0000     -62.280827     -1694.7475
   2   2.0000     -56.061248     -1525.5041
   3   2.0000     -56.058665     -1525.4338
   4   2.0000     -56.058516     -1525.4298
   5   2.0000     -10.081792      -274.3395
   6   2.0000     -10.023616      -272.7564
   7   2.0000      -8.612727      -234.3642
   8   2.0000      -6.419620      -174.6867
   9   2.0000      -6.406820      -174.3384
  10   2.0000      -6.406785      -174.3375
  11   2.0000      -2.517317       -68.4997
  12   2.0000      -2.514150       -68.4135
  13   2.0000      -2.514129       -68.4129
  14   2.0000      -2.504585       -68.1532
  15   2.0000      -2.504576       -68.1530
  16   2.0000      -0.773131       -21.0380
  17   2.0000      -0.687086       -18.6966
  18   2.0000      -0.574542       -15.6341
  19   2.0000      -0.430156       -11.7051
  20   2.0000      -0.403682       -10.9847
  21   2.0000      -0.364235        -9.9113
  22   2.0000      -0.330455        -8.9921
  23   2.0000      -0.319318        -8.6891
  24   2.0000      -0.248851        -6.7716
  25   2.0000      -0.247507        -6.7350
  26   0.0000      -0.020940        -0.5698
  27   0.0000       0.113832         3.0975
  28   0.0000       0.129222         3.5163
  29   0.0000       0.168779         4.5927
  30   0.0000       0.176039         4.7903

MULLIKEN ATOMIC CHARGES
-----------------------
   0 C :   -0.456987
   1 C :   -0.171179
   2 Br:   -0.235424
   3 H :    0.164746
   4 H :    0.169250
   5 H :    0.164774
   6 H :    0.182421
   7 H :    0.182399
Sum of atomic charges:   -0.0000000

LOEWDIN ATOMIC CHARGES
----------------------
   0 C :   -0.444450
   1 C :   -0.381137
   2 Br:    0.011987
   3 H :    0.159410
   4 H :    0.168283
   5 H :    0.159433
   6 H :    0.163239
   7 H :    0.163234

  Mayer bond orders larger than 0.100000
B(  0-C ,  1-C ) :   0.9288 B(  0-C ,  3-H ) :   0.9695 B(  0-C ,  4-H ) :   0.9468
B(  0-C ,  5-H ) :   0.9694 B(  1-C ,  2-Br) :   0.9306 B(  1-C ,  6-H ) :   0.9512
B(  1-C ,  7-H ) :   0.9512

Dispersion correction           -0.001390401
FINAL SINGLE POINT ENERGY     -2653.335713861547

DIPOLE MOMENT
-------------

Method             : SCF
Type of density    : Electron Density
Multiplicity       :   1
Irrep              :   0
Energy             : -2653.3385019153970461 Eh
Relativity type    :
Basis              : AO
                                X                 Y                 Z
Electronic contribution:     14.186036006       0.598611200      -0.000031677
Nuclear contribution   :    -15.337283983      -0.952381131       0.000031915
                        -----------------------------------------
Total Dipole Moment    :     -1.151247977      -0.353769931       0.000000238
                        -----------------------------------------
Magnitude (a.u.)       :      1.204377461
Magnitude (Debye)      :      3.061284221

Rotational constants in cm-1:             1.006702             0.124041             0.115234
Rotational constants in MHz :         30180.175103          3718.663686          3454.630487

                             ****ORCA TERMINATED NORMALLY****
TOTAL RUN TIME: 0 days 0 hours 0 minutes 13 seconds 823 msec
