                         Program Version 6.0.0  -   RELEASE  -
|  1> ! r2scan-3c def2/J RI DEFGRID2 scfconv6 printgap
|  2> %output
|  3>     printlevel normal
|  4> end
|  5> * xyz 0 1
|  6> C -2.2262709664 0.9241388053 0.0004081313
|  7> O -0.8110602357 0.7386563004 -0.0006167662
|  8> C -0.3596311582 -0.5151354967 1.9297e-06
|  9> O -1.1012875154 -1.4820456166 -0.0001273325
| 10> C 1.1104920706 -0.6065507671 -0.0004611965
| 11> C 1.9237164335 0.4319108532 -0.7413262793
| 12> C 1.923481164 0.4309442553 0.7420508523
| 13> H -2.3800269461 1.9976599622 -0.0472829111
| 14> H -2.6573909078 0.5064816421 0.9112244151
| 15> H -2.6705402711 0.4241965716 -0.8613163241
| 16> H 1.4561826302 -1.6311781733 -0.0010266936
| 17> H 2.7980085419 0.0806899197 -1.2654201443
| 18> H 1.3748077215 1.208508198 -1.249591628
| 19> H 2.7976340926 0.0791362453 1.2659163346
| 20> H 1.3742182205 1.2067096369 1.2512835417
| 21> *
| 22>
| 23>                          ****END OF INPUT****

CARTESIAN COORDINATES (ANGSTROEM)
---------------------------------
  C     -2.226271    0.924139    0.000408
  O     -0.811060    0.738656   -0.000617
  C     -0.359631   -0.515135    0.000002
  O     -1.101288   -1.482046   -0.000127
  C      1.110492   -0.606551   -0.000461
  C      1.923716    0.431911   -0.741326
  C      1.923481    0.430944    0.742051
  H     -2.380027    1.997660   -0.047283
  H     -2.657391    0.506482    0.911224
  H     -2.670540    0.424197   -0.861316
  H      1.456183   -1.631178   -0.001027
  H      2.798009    0.080690   -1.265420
  H      1.374808    1.208508   -1.249592
  H      2.797634    0.079136    1.265916
  H      1.374218    1.206710    1.251284

 Total Charge           Charge          ....    0
 Multiplicity           Mult            ....    1
 Number of Electrons    NEL             ....   54
 Basis Dimension        Dim             ....  183

ORBITAL ENERGIES
----------------

  NO   OCC          E(Eh)            E(eV)
   0   2.0000     -18.998697      -516.9808
   1   2.0000     -18.925522      -514.9896
   2   2.0000     -10.152341      -276.2592
   3   2.0000     -10.087397      -274.4920
   4   2.0000     -10.057840      -273.6877
   5   2.0000     -10.049520      -273.4613
   6   2.0000     -10.049313      -273.4557
   7   2.0000      -1.072277       -29.1781
   8   2.0000      -0.972036       -26.4504
   9   2.0000      -0.847271       -23.0554
  10   2.0000      -0.707800       -19.2602
  11   2.0000      -0.618334       -16.8257
  12   2.0000      -0.583298       -15.8723
  13   2.0000      -0.534811       -14.5529
  14   2.0000      -0.491001       -13.3608
  15   2.0000      -0.469000       -12.7621
  16   2.0000      -0.450856       -12.2684
  17   2.0000      -0.429215       -11.6795
  18   2.0000      -0.406427       -11.0594
  19   2.0000      -0.370350       -10.0777
  20   2.0000      -0.361094        -9.8259
  21   2.0000      -0.344457        -9.3731
  22   2.0000      -0.327237        -8.9046
  23   2.0000      -0.298672        -8.1273
  24   2.0000      -0.278864        -7.5883
  25   2.0000      -0.271228        -7.3805
  26   2.0000      -0.232297        -6.3211
  27   0.0000      -0.018251        -0.4966
  28   0.0000       0.060814         1.6548
  29   0.0000       0.087833         2.3900
  30   0.0000       0.098294         2.6747
  31   0.0000       0.101864         2.7719

MULLIKEN ATOMIC CHARGES
-----------------------
   0 C :   -0.291716
   1 O :   -0.206943
   2 C :    0.397892
   3 O :   -0.428982
   4 C :   -0.137321
   5 C :   -0.334115
   6 C :   -0.333933
   7 H :    0.148870
   8 H :    0.160625
   9 H :    0.163620
  10 H :    0.184676
  11 H :    0.165934
  12 H :    0.172736
  13 H :    0.165916
  14 H :    0.172741
Sum of atomic charges:    0.0000000

LOEWDIN ATOMIC CHARGES
----------------------
   0 C :   -0.041660
   1 O :   -0.620937
   2 C :    0.367235
   3 O :   -0.428484
   4 C :   -0.144624
   5 C :   -0.262940
   6 C :   -0.262925
   7 H :    0.175442
   8 H :    0.176252
   9 H :    0.177897
  10 H :    0.184923
  11 H :    0.164147
  12 H :    0.175777
  13 H :    0.164128
  14 H :    0.175771

  Mayer bond orders larger than 0.100000
B(  0-C ,  1-O ) :   0.8479 B(  0-C ,  7-H ) :   0.9711 B(  0-C ,  8-H ) :   0.9619
B(  0-C ,  9-H ) :   0.9627 B(  1-O ,  2-C ) :   1.1114 B(  2-C ,  3-O ) :   1.8359
B(  2-C ,  4-C ) :   1.1120 B(  4-C ,  5-C ) :   0.8683 B(  4-C ,  6-C ) :   0.8684
B(  4-C , 10-H ) :   0.9149 B(  5-C ,  6-C ) :   0.9977 B(  5-C , 11-H ) :   0.9420
B(  5-C , 12-H ) :   0.9519 B(  6-C , 13-H ) :   0.9420 B(  6-C , 14-H ) :   0.9520

Dispersion correction           -0.003585684
FINAL SINGLE POINT ENERGY      -345.698723815513

DIPOLE MOMENT
-------------

Method             : SCF
Type of density    : Electron Density
Multiplicity       :   1
Irrep              :   0
Energy             :  -345.7038904871606633 Eh
Relativity type    :
Basis              : AO
                                X                 Y                 Z
Electronic contribution:     -1.551467604      -2.750647171      -0.003992866
Nuclear contribution   :      1.935105896       3.621763122       0.003541432
                        -----------------------------------------
Total Dipole Moment    :      0.383638292       0.871115952      -0.000451434
                        -----------------------------------------
Magnitude (a.u.)       :      0.951851640
Magnitude (Debye)      :      2.419414594

Rotational constants in cm-1:             0.172923             0.065432             0.053900
Rotational constants in MHz :          5184.109439          1961.587268          1615.881421

                             ****ORCA TERMINATED NORMALLY****
TOTAL RUN TIME: 0 days 0 hours 0 minutes 17 seconds 856 msec
