                         Program Version 6.0.0  -   RELEASE  -
|  1> ! r2scan-3c def2/J RI DEFGRID2 scfconv6 printgap
|  2> %output
|  3>     printlevel normal
|  4> end
|  5> %cpcm
|  6>     smd true
|  7>     smdsolvent "water"
|  8> end
|  9> * xyz 0 1
| 10> C -2.2262709664 0.9241388053 0.0004081313
| 11> O -0.8110602357 0.7386563004 -0.0006167662
| 12> C -0.3596311582 -0.5151354967 1.9297e-06
| 13> O -1.1012875154 -1.4820456166 -0.0001273325
| 14> C 1.1104920706 -0.6065507671 -0.0004611965
| 15> C 1.9237164335 0.4319108532 -0.7413262793
| 16> C 1.923481164 0.4309442553 0.7420508523
| 17> H -2.3800269461 1.9976599622 -0.0472829111
| 18> H -2.6573909078 0.5064816421 0.9112244151
| 19> H -2.6705402711 0.4241965716 -0.8613163241
| 20> H 1.4561826302 -1.6311781733 -0.0010266936
| 21> H 2.7980085419 0.0806899197 -1.2654201443
| 22> H 1.3748077215 1.208508198 -1.249591628
| 23> H 2.7976340926 0.0791362453 1.2659163346
| 24> H 1.3742182205 1.2067096369 1.2512835417
| 25> *
| 26>
| 27>                          ****END OF INPUT****

CARTESIAN COORDINATES (ANGSTROEM)
---------------------------------
  C     -2.226271    0.924139    0.000408
  O     -0.811060    0.738656   -0.000617
  C     -0.359631   -0.515135    0.000002
  O     -1.101288   -1.482046   -0.000127
  C      1.110492   -0.606551   -0.000461
  C      1.923716    0.431911   -0.741326
  C      1.923481    0.430944    0.742051
  H     -2.380027    1.997660   -0.047283
  H     -2.657391    0.506482    0.911224
  H     -2.670540    0.424197   -0.861316
  H      1.456183   -1.631178   -0.001027
  H      2.798009    0.080690   -1.265420
  H      1.374808    1.208508   -1.249592
  H      2.797634    0.079136    1.265916
  H      1.374218    1.206710    1.251284

 Total Charge           Charge          ....    0
 Multiplicity           Mult            ....    1
 Number of Electrons    NEL             ....   54
 Basis Dimension        Dim             ....  183

ORBITAL ENERGIES
----------------

  NO   OCC          E(Eh)            E(eV)
   0   2.0000     -19.003049      -517.0993
   1   2.0000     -18.942838      -515.4608
   2   2.0000     -10.163782      -276.5706
   3   2.0000     -10.076969      -274.2083
   4   2.0000     -10.054318      -273.5919
   5   2.0000     -10.041291      -273.2374
   6   2.0000     -10.041083      -273.2317
   7   2.0000      -1.078986       -29.3607
   8   2.0000      -0.986883       -26.8545
   9   2.0000      -0.841706       -22.9040
  10   2.0000      -0.704296       -19.1649
  11   2.0000      -0.615803       -16.7569
  12   2.0000      -0.574342       -15.6286
  13   2.0000      -0.531935       -14.4747
  14   2.0000      -0.488122       -13.2825
  15   2.0000      -0.466507       -12.6943
  16   2.0000      -0.451039       -12.2734
  17   2.0000      -0.437572       -11.9069
  18   2.0000      -0.405708       -11.0399
  19   2.0000      -0.371828       -10.1180
  20   2.0000      -0.357131        -9.7180
  21   2.0000      -0.334663        -9.1066
  22   2.0000      -0.328015        -8.9257
  23   2.0000      -0.295724        -8.0471
  24   2.0000      -0.280397        -7.6300
  25   2.0000      -0.274764        -7.4767
  26   2.0000      -0.248957        -6.7745
  27   0.0000      -0.026985        -0.7343
  28   0.0000       0.066771         1.8169
  29   0.0000       0.096585         2.6282
  30   0.0000       0.103956         2.8288
  31   0.0000       0.109351         2.9756

MULLIKEN ATOMIC CHARGES
-----------------------
   0 C :   -0.326125
   1 O :   -0.210164
   2 C :    0.441259
   3 O :   -0.518817
   4 C :   -0.167342
   5 C :   -0.363545
   6 C :   -0.363292
   7 H :    0.178261
   8 H :    0.177533
   9 H :    0.177020
  10 H :    0.207484
  11 H :    0.193715
  12 H :    0.190154
  13 H :    0.193690
  14 H :    0.190171
Sum of atomic charges:   -0.0000000

LOEWDIN ATOMIC CHARGES
----------------------
   0 C :   -0.039265
   1 O :   -0.617780
   2 C :    0.373149
   3 O :   -0.496397
   4 C :   -0.149070
   5 C :   -0.261013
   6 C :   -0.260965
   7 H :    0.188295
   8 H :    0.181495
   9 H :    0.182102
  10 H :    0.191469
  11 H :    0.174003
  12 H :    0.179993
  13 H :    0.173984
  14 H :    0.179998

  Mayer bond orders larger than 0.100000
B(  0-C ,  1-O ) :   0.8282 B(  0-C ,  7-H ) :   0.9608 B(  0-C ,  8-H ) :   0.9570
B(  0-C ,  9-H ) :   0.9581 B(  1-O ,  2-C ) :   1.1350 B(  2-C ,  3-O ) :   1.7639
B(  2-C ,  4-C ) :   1.1062 B(  4-C ,  5-C ) :   0.8620 B(  4-C ,  6-C ) :   0.8621
B(  4-C , 10-H ) :   0.9090 B(  5-C ,  6-C ) :   0.9858 B(  5-C , 11-H ) :   0.9352
B(  5-C , 12-H ) :   0.9513 B(  6-C , 13-H ) :   0.9352 B(  6-C , 14-H ) :   0.9513

Dispersion correction           -0.003585684
FINAL SINGLE POINT ENERGY      -345.705652037869

DIPOLE MOMENT
-------------

Method             : SCF
Type of density    : Electron Density
Multiplicity       :   1
Irrep              :   0
Energy             :  -345.7108187095164453 Eh
Relativity type    :
Basis              : AO
                                X                 Y                 Z
Electronic contribution:     -1.330768566      -2.394044783      -0.003524275
Nuclear contribution   :      1.935105896       3.621763122       0.003541432
                        -----------------------------------------
Total Dipole Moment    :      0.604337330       1.227718339       0.000017157
                        -----------------------------------------
Magnitude (a.u.)       :      1.368399039
Magnitude (Debye)      :      3.478193940

Rotational constants in cm-1:             0.172923             0.065432             0.053900
Rotational constants in MHz :          5184.109439          1961.587268          1615.881421

                             ****ORCA TERMINATED NORMALLY****
TOTAL RUN TIME: 0 days 0 hours 0 minutes 21 seconds 287 msec
