                         Program Version 6.0.0  -   RELEASE  -
|  1> ! pbe def2-sv(p) def2/J RI DEFGRID1 loosescf d4 GCP(DFT/SV(P)) printgap
|  2> %output
|  3>     printlevel normal
|  4> end
|  5> * xyz 0 1
|  6> C -1.7285649416 0.3490597773 -0.5884269328
|  7> C -0.8818310081 0.3416274082 0.6799108308
|  8> C 0.584359291 -0.0711057223 0.4815975583
|  9> C 0.7114017205 -1.5023668617 -0.0370121045
| 10> C 1.3324189145 0.8949556845 -0.4353370778
| 11> H -2.74492223 0.6534764718 -0.3486276919
| 12> H -1.7695089592 -0.6399867946 -1.0362491144
| 13> H -1.3307875504 1.0477402667 -1.319204637
| 14> H -0.9005517656 1.3415734064 1.1207432775
| 15> H -1.3364325735 -0.3416540026 1.4017405651
| 16> H 1.057404859 -0.0292778491 1.4708034857
| 17> H 0.3389748851 -1.5792167045 -1.0552060374
| 18> H 0.1496689791 -2.1893824698 0.5918338891
| 19> H 1.7545070044 -1.8104301142 -0.035314639
| 20> H 0.9618063063 0.8259438949 -1.4547575677
| 21> H 2.3935261059 0.6563863609 -0.4454373771
| 22> H 1.2143858403 1.9197959782 -0.0907362406
| 23> *
| 24>
| 25>                          ****END OF INPUT****

CARTESIAN COORDINATES (ANGSTROEM)
---------------------------------
  C     -1.728565    0.349060   -0.588427
  C     -0.881831    0.341627    0.679911
  C      0.584359   -0.071106    0.481598
  C      0.711402   -1.502367   -0.037012
  C      1.332419    0.894956   -0.435337
  H     -2.744922    0.653476   -0.348628
  H     -1.769509   -0.639987   -1.036249
  H     -1.330788    1.047740   -1.319205
  H     -0.900552    1.341573    1.120743
  H     -1.336433   -0.341654    1.401741
  H      1.057405   -0.029278    1.470803
  H      0.338975   -1.579217   -1.055206
  H      0.149669   -2.189382    0.591834
  H      1.754507   -1.810430   -0.035315
  H      0.961806    0.825944   -1.454758
  H      2.393526    0.656386   -0.445437
  H      1.214386    1.919796   -0.090736

 Total Charge           Charge          ....    0
 Multiplicity           Mult            ....    1
 Number of Electrons    NEL             ....   42
 Basis Dimension        Dim             ....   94

ORBITAL ENERGIES
----------------

  NO   OCC          E(Eh)            E(eV)
   0   2.0000      -9.888902      -269.0907
   1   2.0000      -9.877707      -268.7861
   2   2.0000      -9.868914      -268.5468
   3   2.0000      -9.868142      -268.5258
   4   2.0000      -9.868117      -268.5251
   5   2.0000      -0.727875       -19.8065
   6   2.0000      -0.651979       -17.7412
   7   2.0000      -0.606747       -16.5104
   8   2.0000      -0.561220       -15.2716
   9   2.0000      -0.477167       -12.9844
  10   2.0000      -0.418530       -11.3888
  11   2.0000      -0.401779       -10.9330
  12   2.0000      -0.384879       -10.4731
  13   2.0000      -0.352421        -9.5899
  14   2.0000      -0.338045        -9.1987
  15   2.0000      -0.328561        -8.9406
  16   2.0000      -0.328371        -8.9354
  17   2.0000      -0.300805        -8.1853
  18   2.0000      -0.276170        -7.5150
  19   2.0000      -0.271821        -7.3966
  20   2.0000      -0.270392        -7.3577
  21   0.0000       0.032047         0.8720
  22   0.0000       0.066651         1.8137
  23   0.0000       0.074949         2.0395
  24   0.0000       0.085679         2.3314
  25   0.0000       0.099240         2.7005

MULLIKEN ATOMIC CHARGES
-----------------------
   0 C :   -0.296882
   1 C :   -0.153943
   2 C :   -0.163390
   3 C :   -0.256347
   4 C :   -0.256717
   5 H :    0.101619
   6 H :    0.104064
   7 H :    0.103789
   8 H :    0.080137
   9 H :    0.080173
  10 H :    0.069738
  11 H :    0.100439
  12 H :    0.096223
  13 H :    0.097154
  14 H :    0.100578
  15 H :    0.097130
  16 H :    0.096236
Sum of atomic charges:    0.0000000

LOEWDIN ATOMIC CHARGES
----------------------
   0 C :   -0.344840
   1 C :   -0.226036
   2 C :   -0.158815
   3 C :   -0.331537
   4 C :   -0.331620
   5 H :    0.120379
   6 H :    0.117223
   7 H :    0.117191
   8 H :    0.112554
   9 H :    0.112589
  10 H :    0.113644
  11 H :    0.115596
  12 H :    0.116256
  13 H :    0.117754
  14 H :    0.115620
  15 H :    0.117794
  16 H :    0.116249

  Mayer bond orders larger than 0.100000
B(  0-C ,  1-C ) :   1.1494 B(  0-C ,  5-H ) :   0.9505 B(  0-C ,  6-H ) :   0.9510
B(  0-C ,  7-H ) :   0.9509 B(  1-C ,  2-C ) :   1.0877 B(  1-C ,  8-H ) :   0.9256
B(  1-C ,  9-H ) :   0.9255 B(  2-C ,  3-C ) :   1.1089 B(  2-C ,  4-C ) :   1.1092
B(  2-C , 10-H ) :   0.9039 B(  3-C , 11-H ) :   0.9457 B(  3-C , 12-H ) :   0.9518
B(  3-C , 13-H ) :   0.9512 B(  4-C , 14-H ) :   0.9456 B(  4-C , 15-H ) :   0.9512
B(  4-C , 16-H ) :   0.9518

Dispersion correction           -0.011943655
FINAL SINGLE POINT ENERGY      -197.236395850595

DIPOLE MOMENT
-------------

Method             : SCF
Type of density    : Electron Density
Multiplicity       :   1
Irrep              :   0
Energy             :  -197.2939796159672881 Eh
Relativity type    :
Basis              : AO
                                X                 Y                 Z
Electronic contribution:      0.206460744       0.139270053       1.158950099
Nuclear contribution   :     -0.198823576      -0.136062922      -1.126179580
                        -----------------------------------------
Total Dipole Moment    :      0.007637168       0.003207130       0.032770519
                        -----------------------------------------
Magnitude (a.u.)       :      0.033801168
Magnitude (Debye)      :      0.085915740

Rotational constants in cm-1:             0.203302             0.126102             0.102582
Rotational constants in MHz :          6094.835122          3780.443900          3075.319243

                             ****ORCA TERMINATED NORMALLY****
TOTAL RUN TIME: 0 days 0 hours 0 minutes 6 seconds 426 msec
