                         Program Version 6.0.0  -   RELEASE  -
|  1> ! pbe def2-sv(p) def2/J RI DEFGRID1 loosescf d4 GCP(DFT/SV(P)) printgap
|  2> %output
|  3>     printlevel normal
|  4> end
|  5> * xyz 0 1
|  6> C -2.4204393623 -1.1010614228 -0.3198010409
|  7> C -1.0733580067 -0.6039805664 0.227514485
|  8> H -1.1189794 -0.5943643629 1.329531759
|  9> C -0.7503338844 0.8207409318 -0.2740377379
| 10> H -0.7526833146 0.8192151064 -1.3708557652
| 11> C 0.646843767 1.2257407677 0.2063518595
| 12> H 0.6495048971 1.2842578107 1.3093886995
| 13> C 1.6683844081 0.158376817 -0.2030093738
| 14> H 1.7358109593 0.1228353475 -1.3002952329
| 15> C 1.2025738815 -1.2238122988 0.2823522391
| 16> H 1.1887068472 -1.2239499002 1.3941760406
| 17> O -0.0869953128 -1.5220287026 -0.1987397766
| 18> O 2.0836072959 -2.1677617531 -0.2050690531
| 19> O 2.902159519 0.5135163497 0.3655781716
| 20> O 0.9685769711 2.4783050157 -0.3389704314
| 21> O -1.7447264581 1.7330584852 0.1172676649
| 22> O -3.5133895001 -0.4513830969 0.2678106475
| 23> H -2.5218685097 -2.1627631026 -0.0850063315
| 24> H -2.4235232941 -0.9814535456 -1.4106034274
| 25> H 1.6962282222 -3.0528660986 -0.1208158727
| 26> H 3.5587991844 -0.1634712476 0.1453437342
| 27> H 1.897697308 2.6697421561 -0.1398088843
| 28> H -1.5126092328 2.1396752703 0.9641372968
| 29> H -3.4124767786 0.5051454114 0.120616014
| 30> *
| 31>
| 32>                          ****END OF INPUT****

CARTESIAN COORDINATES (ANGSTROEM)
---------------------------------
  C     -2.420439   -1.101061   -0.319801
  C     -1.073358   -0.603981    0.227514
  H     -1.118979   -0.594364    1.329532
  C     -0.750334    0.820741   -0.274038
  H     -0.752683    0.819215   -1.370856
  C      0.646844    1.225741    0.206352
  H      0.649505    1.284258    1.309389
  C      1.668384    0.158377   -0.203009
  H      1.735811    0.122835   -1.300295
  C      1.202574   -1.223812    0.282352
  H      1.188707   -1.223950    1.394176
  O     -0.086995   -1.522029   -0.198740
  O      2.083607   -2.167762   -0.205069
  O      2.902160    0.513516    0.365578
  O      0.968577    2.478305   -0.338970
  O     -1.744726    1.733058    0.117268
  O     -3.513390   -0.451383    0.267811
  H     -2.521869   -2.162763   -0.085006
  H     -2.423523   -0.981454   -1.410603
  H      1.696228   -3.052866   -0.120816
  H      3.558799   -0.163471    0.145344
  H      1.897697    2.669742   -0.139809
  H     -1.512609    2.139675    0.964137
  H     -3.412477    0.505145    0.120616

 Total Charge           Charge          ....    0
 Multiplicity           Mult            ....    1
 Number of Electrons    NEL             ....   96
 Basis Dimension        Dim             ....  192

ORBITAL ENERGIES
----------------

  NO   OCC          E(Eh)            E(eV)
   0   2.0000     -18.780588      -511.0458
   1   2.0000     -18.774206      -510.8721
   2   2.0000     -18.771353      -510.7945
   3   2.0000     -18.767464      -510.6887
   4   2.0000     -18.754907      -510.3470
   5   2.0000     -18.733218      -509.7568
   6   2.0000      -9.994438      -271.9625
   7   2.0000      -9.953822      -270.8573
   8   2.0000      -9.951804      -270.8023
   9   2.0000      -9.948684      -270.7175
  10   2.0000      -9.945747      -270.6375
  11   2.0000      -9.927273      -270.1348
  12   2.0000      -0.994326       -27.0570
  13   2.0000      -0.955833       -26.0095
  14   2.0000      -0.947559       -25.7844
  15   2.0000      -0.927801       -25.2468
  16   2.0000      -0.923461       -25.1286
  17   2.0000      -0.909275       -24.7426
  18   2.0000      -0.712011       -19.3748
  19   2.0000      -0.695169       -18.9165
  20   2.0000      -0.617701       -16.8085
  21   2.0000      -0.592241       -16.1157
  22   2.0000      -0.561941       -15.2912
  23   2.0000      -0.544778       -14.8242
  24   2.0000      -0.515914       -14.0387
  25   2.0000      -0.496171       -13.5015
  26   2.0000      -0.470356       -12.7990
  27   2.0000      -0.465957       -12.6793
  28   2.0000      -0.455538       -12.3958
  29   2.0000      -0.445163       -12.1135
  30   2.0000      -0.421197       -11.4613
  31   2.0000      -0.406259       -11.0549
  32   2.0000      -0.387677       -10.5492
  33   2.0000      -0.377135       -10.2624
  34   2.0000      -0.360231        -9.8024
  35   2.0000      -0.354294        -9.6408
  36   2.0000      -0.332161        -9.0386
  37   2.0000      -0.330200        -8.9852
  38   2.0000      -0.317950        -8.6519
  39   2.0000      -0.302631        -8.2350
  40   2.0000      -0.284784        -7.7494
  41   2.0000      -0.273338        -7.4379
  42   2.0000      -0.263560        -7.1718
  43   2.0000      -0.249226        -6.7818
  44   2.0000      -0.234499        -6.3810
  45   2.0000      -0.232615        -6.3298
  46   2.0000      -0.214568        -5.8387
  47   2.0000      -0.203667        -5.5421
  48   0.0000       0.012409         0.3377
  49   0.0000       0.014401         0.3919
  50   0.0000       0.027611         0.7513
  51   0.0000       0.048437         1.3180
  52   0.0000       0.059442         1.6175

MULLIKEN ATOMIC CHARGES
-----------------------
   0 C :    0.108046
   1 C :   -0.017964
   2 H :    0.046037
   3 C :    0.069012
   4 H :    0.072740
   5 C :    0.057451
   6 H :    0.043356
   7 C :    0.023604
   8 H :    0.066732
   9 C :    0.184239
  10 H :    0.037103
  11 O :   -0.308604
  12 O :   -0.389473
  13 O :   -0.424692
  14 O :   -0.406827
  15 O :   -0.415009
  16 O :   -0.449624
  17 H :    0.087415
  18 H :    0.065498
  19 H :    0.313712
  20 H :    0.314945
  21 H :    0.309951
  22 H :    0.314154
  23 H :    0.298198
Sum of atomic charges:   -0.0000000

LOEWDIN ATOMIC CHARGES
----------------------
   0 C :   -0.118161
   1 C :   -0.078351
   2 H :    0.098566
   3 C :   -0.067111
   4 H :    0.121487
   5 C :   -0.074935
   6 H :    0.097145
   7 C :   -0.089720
   8 H :    0.111409
   9 C :   -0.004399
  10 H :    0.079866
  11 O :   -0.150339
  12 O :   -0.301946
  13 O :   -0.320517
  14 O :   -0.317612
  15 O :   -0.297426
  16 O :   -0.343302
  17 H :    0.114097
  18 H :    0.097850
  19 H :    0.294997
  20 H :    0.294102
  21 H :    0.289470
  22 H :    0.293926
  23 H :    0.270906

  Mayer bond orders larger than 0.100000
B(  0-C ,  1-C ) :   1.0313 B(  0-C , 16-O ) :   1.0942 B(  0-C , 17-H ) :   0.9228
B(  0-C , 18-H ) :   0.9075 B(  1-C ,  2-H ) :   0.8722 B(  1-C ,  3-C ) :   0.9830
B(  1-C , 11-O ) :   0.9721 B(  3-C ,  4-H ) :   0.8683 B(  3-C ,  5-C ) :   1.0280
B(  3-C , 15-O ) :   1.0322 B(  5-C ,  6-H ) :   0.8646 B(  5-C ,  7-C ) :   1.0151
B(  5-C , 14-O ) :   1.1124 B(  7-C ,  8-H ) :   0.8678 B(  7-C ,  9-C ) :   0.9903
B(  7-C , 13-O ) :   1.0663 B(  9-C , 10-H ) :   0.8836 B(  9-C , 11-O ) :   1.0178
B(  9-C , 12-O ) :   1.1657 B( 12-O , 19-H ) :   0.8353 B( 13-O , 20-H ) :   0.8366
B( 14-O , 21-H ) :   0.8360 B( 15-O , 22-H ) :   0.8377 B( 16-O , 23-H ) :   0.8171

Dispersion correction           -0.023855878
FINAL SINGLE POINT ENERGY      -685.702184305090

DIPOLE MOMENT
-------------

Method             : SCF
Type of density    : Electron Density
Multiplicity       :   1
Irrep              :   0
Energy             :  -685.8331041829486594 Eh
Relativity type    :
Basis              : AO
                                X                 Y                 Z
Electronic contribution:      2.004276649       0.325397632      -0.340164127
Nuclear contribution   :     -0.943586006      -0.589902554       0.784246815
                        -----------------------------------------
Total Dipole Moment    :      1.060690644      -0.264504922       0.444082689
                        -----------------------------------------
Magnitude (a.u.)       :      1.179930901
Magnitude (Debye)      :      2.999146003

Rotational constants in cm-1:             0.043873             0.024497             0.016438
Rotational constants in MHz :          1315.274031           734.393078           492.792610

                             ****ORCA TERMINATED NORMALLY****
TOTAL RUN TIME: 0 days 0 hours 0 minutes 12 seconds 47 msec
