                         Program Version 6.0.0  -   RELEASE  -
|  1> ! pbe def2-sv(p) def2/J RI DEFGRID1 loosescf d4 GCP(DFT/SV(P)) printgap
|  2> %output
|  3>     printlevel normal
|  4> end
|  5> * xyz 0 1
|  6> C -2.1910800131 -0.9676253491 -0.0947896188
|  7> C -1.0909056542 -0.3753531186 0.8135062084
|  8> H -1.5145803659 -0.3561340297 1.8254572165
|  9> C -0.7337494041 1.086272878 0.4600037727
| 10> H -1.5991933441 1.5205797019 -0.0540766353
| 11> C 0.5090151361 1.2455897657 -0.4400155429
| 12> H 0.8517277758 2.2854091776 -0.3147740393
| 13> C 1.6359621659 0.3160532681 0.0379974104
| 14> H 2.4610947984 0.3713098272 -0.6864709164
| 15> C 1.1079473307 -1.1301030148 0.0618201604
| 16> H 1.8533523395 -1.8103848054 0.4963371119
| 17> O 0.025773733 -1.2555121382 0.9510344059
| 18> O 0.8355140852 -1.5962825296 -1.2219823021
| 19> O 2.0350788787 0.7519267953 1.3114302409
| 20> O 0.2811907693 0.96653009 -1.7996334879
| 21> O -0.5713361765 1.8604464242 1.6249303827
| 22> O -1.9391144556 -0.8905098076 -1.4730704533
| 23> H -3.1094223321 -0.4014928367 0.0763306374
| 24> H -2.3510010471 -2.0065193047 0.2168605107
| 25> H 0.6099959463 -0.8288469943 -1.7907503853
| 26> H 2.7726032659 0.215060464 1.6342856169
| 27> H -0.5080973765 1.4319455189 -2.1121617444
| 28> H 0.2652694353 1.6075718577 2.049852033
| 29> H -1.2310971474 -1.5181460782 -1.6933027232
| 30> *
| 31>
| 32>                          ****END OF INPUT****

CARTESIAN COORDINATES (ANGSTROEM)
---------------------------------
  C     -2.191080   -0.967625   -0.094790
  C     -1.090906   -0.375353    0.813506
  H     -1.514580   -0.356134    1.825457
  C     -0.733749    1.086273    0.460004
  H     -1.599193    1.520580   -0.054077
  C      0.509015    1.245590   -0.440016
  H      0.851728    2.285409   -0.314774
  C      1.635962    0.316053    0.037997
  H      2.461095    0.371310   -0.686471
  C      1.107947   -1.130103    0.061820
  H      1.853352   -1.810385    0.496337
  O      0.025774   -1.255512    0.951034
  O      0.835514   -1.596283   -1.221982
  O      2.035079    0.751927    1.311430
  O      0.281191    0.966530   -1.799633
  O     -0.571336    1.860446    1.624930
  O     -1.939114   -0.890510   -1.473070
  H     -3.109422   -0.401493    0.076331
  H     -2.351001   -2.006519    0.216861
  H      0.609996   -0.828847   -1.790750
  H      2.772603    0.215060    1.634286
  H     -0.508097    1.431946   -2.112162
  H      0.265269    1.607572    2.049852
  H     -1.231097   -1.518146   -1.693303

 Total Charge           Charge          ....    0
 Multiplicity           Mult            ....    1
 Number of Electrons    NEL             ....   96
 Basis Dimension        Dim             ....  192

ORBITAL ENERGIES
----------------

  NO   OCC          E(Eh)            E(eV)
   0   2.0000     -18.785828      -511.1884
   1   2.0000     -18.783830      -511.1340
   2   2.0000     -18.759842      -510.4813
   3   2.0000     -18.759589      -510.4744
   4   2.0000     -18.744505      -510.0639
   5   2.0000     -18.741340      -509.9778
   6   2.0000      -9.988370      -271.7974
   7   2.0000      -9.959936      -271.0236
   8   2.0000      -9.958690      -270.9897
   9   2.0000      -9.947287      -270.6794
  10   2.0000      -9.937967      -270.4258
  11   2.0000      -9.928396      -270.1654
  12   2.0000      -0.983983       -26.7755
  13   2.0000      -0.955113       -25.9900
  14   2.0000      -0.953480       -25.9455
  15   2.0000      -0.924383       -25.1537
  16   2.0000      -0.918958       -25.0061
  17   2.0000      -0.906465       -24.6662
  18   2.0000      -0.707189       -19.2436
  19   2.0000      -0.694168       -18.8893
  20   2.0000      -0.617869       -16.8131
  21   2.0000      -0.605020       -16.4634
  22   2.0000      -0.569232       -15.4896
  23   2.0000      -0.533622       -14.5206
  24   2.0000      -0.510883       -13.9018
  25   2.0000      -0.495027       -13.4704
  26   2.0000      -0.473560       -12.8862
  27   2.0000      -0.461431       -12.5562
  28   2.0000      -0.446633       -12.1535
  29   2.0000      -0.437425       -11.9029
  30   2.0000      -0.429969       -11.7001
  31   2.0000      -0.396928       -10.8009
  32   2.0000      -0.391954       -10.6656
  33   2.0000      -0.382771       -10.4157
  34   2.0000      -0.362371        -9.8606
  35   2.0000      -0.349194        -9.5020
  36   2.0000      -0.342071        -9.3082
  37   2.0000      -0.333129        -9.0649
  38   2.0000      -0.310684        -8.4542
  39   2.0000      -0.295813        -8.0495
  40   2.0000      -0.288095        -7.8395
  41   2.0000      -0.270348        -7.3565
  42   2.0000      -0.256824        -6.9885
  43   2.0000      -0.254423        -6.9232
  44   2.0000      -0.238967        -6.5026
  45   2.0000      -0.234045        -6.3687
  46   2.0000      -0.218800        -5.9539
  47   2.0000      -0.194636        -5.2963
  48   0.0000      -0.002651        -0.0721
  49   0.0000       0.016359         0.4452
  50   0.0000       0.051623         1.4047
  51   0.0000       0.056793         1.5454
  52   0.0000       0.064231         1.7478

MULLIKEN ATOMIC CHARGES
-----------------------
   0 C :    0.029906
   1 C :    0.046095
   2 H :    0.074800
   3 C :    0.065656
   4 H :    0.065069
   5 C :    0.026169
   6 H :    0.085576
   7 C :   -0.003917
   8 H :    0.090204
   9 C :    0.200416
  10 H :    0.058679
  11 O :   -0.308276
  12 O :   -0.420136
  13 O :   -0.419301
  14 O :   -0.419663
  15 O :   -0.433552
  16 O :   -0.451488
  17 H :    0.083710
  18 H :    0.084520
  19 H :    0.311022
  20 H :    0.316042
  21 H :    0.321988
  22 H :    0.306145
  23 H :    0.290337
Sum of atomic charges:    0.0000000

LOEWDIN ATOMIC CHARGES
----------------------
   0 C :   -0.135246
   1 C :   -0.078220
   2 H :    0.124477
   3 C :   -0.068508
   4 H :    0.115550
   5 C :   -0.070859
   6 H :    0.111427
   7 C :   -0.089119
   8 H :    0.112031
   9 C :   -0.011206
  10 H :    0.100798
  11 O :   -0.149066
  12 O :   -0.317199
  13 O :   -0.304163
  14 O :   -0.301759
  15 O :   -0.320987
  16 O :   -0.346426
  17 H :    0.113965
  18 H :    0.104819
  19 H :    0.271138
  20 H :    0.296989
  21 H :    0.295920
  22 H :    0.276348
  23 H :    0.269296

  Mayer bond orders larger than 0.100000
B(  0-C ,  1-C ) :   1.0285 B(  0-C , 16-O ) :   1.0993 B(  0-C , 17-H ) :   0.9171
B(  0-C , 18-H ) :   0.9156 B(  1-C ,  2-H ) :   0.8838 B(  1-C ,  3-C ) :   0.9656
B(  1-C , 11-O ) :   0.9902 B(  3-C ,  4-H ) :   0.8903 B(  3-C ,  5-C ) :   0.9856
B(  3-C , 15-O ) :   1.0481 B(  5-C ,  6-H ) :   0.8988 B(  5-C ,  7-C ) :   1.0065
B(  5-C , 14-O ) :   1.0235 B(  7-C ,  8-H ) :   0.8987 B(  7-C ,  9-C ) :   0.9817
B(  7-C , 13-O ) :   1.0372 B(  9-C , 10-H ) :   0.9101 B(  9-C , 11-O ) :   1.0707
B(  9-C , 12-O ) :   1.1045 B( 12-O , 19-H ) :   0.7670 B( 13-O , 20-H ) :   0.8395
B( 14-O , 19-H ) :   0.1261 B( 14-O , 21-H ) :   0.8261 B( 15-O , 22-H ) :   0.8207
B( 16-O , 23-H ) :   0.8075

Dispersion correction           -0.026585029
FINAL SINGLE POINT ENERGY      -685.700699923068

DIPOLE MOMENT
-------------

Method             : SCF
Type of density    : Electron Density
Multiplicity       :   1
Irrep              :   0
Energy             :  -685.8356406757072818 Eh
Relativity type    :
Basis              : AO
                                X                 Y                 Z
Electronic contribution:      2.137085216      -0.218870859       0.318203376
Nuclear contribution   :     -1.396760690       0.476376758      -0.339620354
                        -----------------------------------------
Total Dipole Moment    :      0.740324526       0.257505900      -0.021416978
                        -----------------------------------------
Magnitude (a.u.)       :      0.784122681
Magnitude (Debye)      :      1.993081462

Rotational constants in cm-1:             0.040172             0.031502             0.027322
Rotational constants in MHz :          1204.327688           944.411105           819.107150

                             ****ORCA TERMINATED NORMALLY****
TOTAL RUN TIME: 0 days 0 hours 0 minutes 12 seconds 595 msec
