                         Program Version 6.0.0  -   RELEASE  -
|  1> ! r2scan-3c def2/J RI DEFGRID2 scfconv6 printgap
|  2> %output
|  3>     printlevel normal
|  4> end
|  5> * xyz 0 1
|  6> C 3.7425321632 0.2684793486 0.0859946887
|  7> C 2.288242266 0.1574671429 -0.3630985655
|  8> H 2.2667883673 -0.1021393476 -1.4274629216
|  9> C 1.5401249885 1.471357416 -0.1635707433
| 10> C 0.0881135454 1.3465459646 -0.6138043458
| 11> C -0.6813102609 0.2512919933 0.1380236981
| 12> H -0.7108531603 0.5121887793 1.2027837597
| 13> C 0.0937186216 -1.0762559319 -0.0167775814
| 14> H 0.0573629527 -1.3791480572 -1.0705776399
| 15> C 1.5554678096 -0.9264416845 0.4194245309
| 16> O -0.4859595783 -2.1657857355 0.6794650771
| 17> C -2.1363160429 0.1346518628 -0.3764973302
| 18> C -3.0134155987 -0.6818937669 0.574924137
| 19> C -2.8025834452 1.4980991702 -0.5821667026
| 20> H 3.7953998868 0.5261108519 1.1415033007
| 21> H 4.2618611484 -0.6748626921 -0.0643441876
| 22> H 4.2571386755 1.0397236155 -0.4818141748
| 23> H 1.5733939739 1.7471857706 0.8929994537
| 24> H 2.0253804816 2.2674588936 -0.7315403263
| 25> H -0.4000898582 2.3068027662 -0.4550748916
| 26> H 0.0612989371 1.1230415247 -1.683149093
| 27> H 1.5805955903 -0.6762000405 1.4840146423
| 28> H 2.0501787545 -1.8917463086 0.289190517
| 29> H -0.3771256745 -2.0114959857 1.6284940307
| 30> H -2.1070543224 -0.3813022228 -1.3434704727
| 31> H -4.0275960401 -0.7409161987 0.185746129
| 32> H -3.0513821587 -0.2074535144 1.553510618
| 33> H -2.6335075866 -1.692112327 0.6841485613
| 34> H -2.3595166763 2.0458218669 -1.4082423196
| 35> H -2.7303363931 2.0985449693 0.322044943
| 36> H -3.8566191051 1.3536961891 -0.8086318953
| 37> *
| 38>
| 39>                          ****END OF INPUT****

CARTESIAN COORDINATES (ANGSTROEM)
---------------------------------
  C      3.742532    0.268479    0.085995
  C      2.288242    0.157467   -0.363099
  H      2.266788   -0.102139   -1.427463
  C      1.540125    1.471357   -0.163571
  C      0.088114    1.346546   -0.613804
  C     -0.681310    0.251292    0.138024
  H     -0.710853    0.512189    1.202784
  C      0.093719   -1.076256   -0.016778
  H      0.057363   -1.379148   -1.070578
  C      1.555468   -0.926442    0.419425
  O     -0.485960   -2.165786    0.679465
  C     -2.136316    0.134652   -0.376497
  C     -3.013416   -0.681894    0.574924
  C     -2.802583    1.498099   -0.582167
  H      3.795400    0.526111    1.141503
  H      4.261861   -0.674863   -0.064344
  H      4.257139    1.039724   -0.481814
  H      1.573394    1.747186    0.892999
  H      2.025380    2.267459   -0.731540
  H     -0.400090    2.306803   -0.455075
  H      0.061299    1.123042   -1.683149
  H      1.580596   -0.676200    1.484015
  H      2.050179   -1.891746    0.289191
  H     -0.377126   -2.011496    1.628494
  H     -2.107054   -0.381302   -1.343470
  H     -4.027596   -0.740916    0.185746
  H     -3.051382   -0.207454    1.553511
  H     -2.633508   -1.692112    0.684149
  H     -2.359517    2.045822   -1.408242
  H     -2.730336    2.098545    0.322045
  H     -3.856619    1.353696   -0.808632

 Total Charge           Charge          ....    0
 Multiplicity           Mult            ....    1
 Number of Electrons    NEL             ....   88
 Basis Dimension        Dim             ....  314

ORBITAL ENERGIES
----------------

  NO   OCC          E(Eh)            E(eV)
   0   2.0000     -18.944032      -515.4933
   1   2.0000     -10.077020      -274.2097
   2   2.0000     -10.033557      -273.0270
   3   2.0000     -10.030484      -272.9433
   4   2.0000     -10.029271      -272.9103
   5   2.0000     -10.024149      -272.7710
   6   2.0000     -10.023327      -272.7486
   7   2.0000     -10.023024      -272.7403
   8   2.0000     -10.017124      -272.5798
   9   2.0000     -10.011167      -272.4177
  10   2.0000     -10.000478      -272.1268
  11   2.0000      -0.984472       -26.7888
  12   2.0000      -0.806469       -21.9451
  13   2.0000      -0.766873       -20.8677
  14   2.0000      -0.712662       -19.3925
  15   2.0000      -0.698009       -18.9938
  16   2.0000      -0.644226       -17.5303
  17   2.0000      -0.640231       -17.4216
  18   2.0000      -0.580530       -15.7970
  19   2.0000      -0.566423       -15.4131
  20   2.0000      -0.532558       -14.4916
  21   2.0000      -0.523673       -14.2499
  22   2.0000      -0.466553       -12.6956
  23   2.0000      -0.440718       -11.9925
  24   2.0000      -0.418583       -11.3902
  25   2.0000      -0.417702       -11.3662
  26   2.0000      -0.407262       -11.0822
  27   2.0000      -0.397936       -10.8284
  28   2.0000      -0.379691       -10.3319
  29   2.0000      -0.376048       -10.2328
  30   2.0000      -0.363267        -9.8850
  31   2.0000      -0.357706        -9.7337
  32   2.0000      -0.345189        -9.3931
  33   2.0000      -0.339362        -9.2345
  34   2.0000      -0.324788        -8.8379
  35   2.0000      -0.314627        -8.5614
  36   2.0000      -0.310709        -8.4548
  37   2.0000      -0.305386        -8.3100
  38   2.0000      -0.295508        -8.0412
  39   2.0000      -0.294200        -8.0056
  40   2.0000      -0.285548        -7.7701
  41   2.0000      -0.274163        -7.4604
  42   2.0000      -0.262322        -7.1381
  43   2.0000      -0.220603        -6.0029
  44   0.0000       0.061262         1.6670
  45   0.0000       0.081235         2.2105
  46   0.0000       0.089119         2.4251
  47   0.0000       0.093350         2.5402
  48   0.0000       0.112358         3.0574

MULLIKEN ATOMIC CHARGES
-----------------------
   0 C :   -0.498441
   1 C :   -0.053672
   2 H :    0.164023
   3 C :   -0.343026
   4 C :   -0.342680
   5 C :   -0.060071
   6 H :    0.183579
   7 C :   -0.196641
   8 H :    0.168629
   9 C :   -0.322368
  10 O :   -0.394269
  11 C :    0.023480
  12 C :   -0.582302
  13 C :   -0.516333
  14 H :    0.148477
  15 H :    0.148708
  16 H :    0.147997
  17 H :    0.154287
  18 H :    0.147902
  19 H :    0.157982
  20 H :    0.160082
  21 H :    0.144189
  22 H :    0.162604
  23 H :    0.292511
  24 H :    0.158555
  25 H :    0.139817
  26 H :    0.146119
  27 H :    0.197659
  28 H :    0.156158
  29 H :    0.160822
  30 H :    0.146223
Sum of atomic charges:    0.0000000

LOEWDIN ATOMIC CHARGES
----------------------
   0 C :   -0.412050
   1 C :   -0.233653
   2 H :    0.159340
   3 C :   -0.293715
   4 C :   -0.287144
   5 C :   -0.197007
   6 H :    0.165648
   7 C :    0.064199
   8 H :    0.185915
   9 C :   -0.267396
  10 O :   -0.616127
  11 C :   -0.228145
  12 C :   -0.417352
  13 C :   -0.419379
  14 H :    0.153712
  15 H :    0.153974
  16 H :    0.153489
  17 H :    0.158351
  18 H :    0.158380
  19 H :    0.163280
  20 H :    0.161629
  21 H :    0.159530
  22 H :    0.168797
  23 H :    0.267341
  24 H :    0.160934
  25 H :    0.148584
  26 H :    0.150320
  27 H :    0.178023
  28 H :    0.152143
  29 H :    0.154438
  30 H :    0.153939

  Mayer bond orders larger than 0.100000
B(  0-C ,  1-C ) :   0.8905 B(  0-C , 14-H ) :   0.9957 B(  0-C , 15-H ) :   0.9770
B(  0-C , 16-H ) :   0.9761 B(  1-C ,  2-H ) :   0.9656 B(  1-C ,  3-C ) :   0.9063
B(  1-C ,  9-C ) :   0.8937 B(  3-C ,  4-C ) :   0.8879 B(  3-C , 17-H ) :   1.0158
B(  3-C , 18-H ) :   0.9468 B(  4-C ,  5-C ) :   0.8725 B(  4-C , 19-H ) :   0.9370
B(  4-C , 20-H ) :   0.9969 B(  5-C ,  6-H ) :   0.9820 B(  5-C ,  7-C ) :   0.9112
B(  5-C , 11-C ) :   0.8394 B(  7-C ,  8-H ) :   0.9861 B(  7-C ,  9-C ) :   0.9124
B(  7-C , 10-O ) :   0.9805 B(  9-C , 21-H ) :   1.0068 B(  9-C , 22-H ) :   0.9488
B( 10-O , 23-H ) :   0.8914 B( 11-C , 12-C ) :   0.8793 B( 11-C , 13-C ) :   0.8389
B( 11-C , 24-H ) :   0.9800 B( 12-C , 25-H ) :   0.9758 B( 12-C , 26-H ) :   0.9963
B( 12-C , 27-H ) :   0.9657 B( 13-C , 28-H ) :   0.9731 B( 13-C , 29-H ) :   0.9929
B( 13-C , 30-H ) :   0.9739

Dispersion correction           -0.010752123
FINAL SINGLE POINT ENERGY      -468.205142444103

DIPOLE MOMENT
-------------

Method             : SCF
Type of density    : Electron Density
Multiplicity       :   1
Irrep              :   0
Energy             :  -468.2097979012049791 Eh
Relativity type    :
Basis              : AO
                                X                 Y                 Z
Electronic contribution:      0.663665266      -4.449641544       0.237697298
Nuclear contribution   :     -0.311815647       4.905610939      -0.074233209
                        -----------------------------------------
Total Dipole Moment    :      0.351849619       0.455969395       0.163464089
                        -----------------------------------------
Magnitude (a.u.)       :      0.598687524
Magnitude (Debye)      :      1.521742752

Rotational constants in cm-1:             0.062019             0.023446             0.017976
Rotational constants in MHz :          1859.272384           702.886204           538.912867

                             ****ORCA TERMINATED NORMALLY****
TOTAL RUN TIME: 0 days 0 hours 0 minutes 48 seconds 257 msec
