                         Program Version 6.0.0  -   RELEASE  -
|  1> ! r2scan-3c def2/J RI DEFGRID2 scfconv6 printgap
|  2> %output
|  3>     printlevel normal
|  4> end
|  5> %cpcm
|  6>     smd true
|  7>     smdsolvent "water"
|  8> end
|  9> * xyz 0 1
| 10> C 3.7425321632 0.2684793486 0.0859946887
| 11> C 2.288242266 0.1574671429 -0.3630985655
| 12> H 2.2667883673 -0.1021393476 -1.4274629216
| 13> C 1.5401249885 1.471357416 -0.1635707433
| 14> C 0.0881135454 1.3465459646 -0.6138043458
| 15> C -0.6813102609 0.2512919933 0.1380236981
| 16> H -0.7108531603 0.5121887793 1.2027837597
| 17> C 0.0937186216 -1.0762559319 -0.0167775814
| 18> H 0.0573629527 -1.3791480572 -1.0705776399
| 19> C 1.5554678096 -0.9264416845 0.4194245309
| 20> O -0.4859595783 -2.1657857355 0.6794650771
| 21> C -2.1363160429 0.1346518628 -0.3764973302
| 22> C -3.0134155987 -0.6818937669 0.574924137
| 23> C -2.8025834452 1.4980991702 -0.5821667026
| 24> H 3.7953998868 0.5261108519 1.1415033007
| 25> H 4.2618611484 -0.6748626921 -0.0643441876
| 26> H 4.2571386755 1.0397236155 -0.4818141748
| 27> H 1.5733939739 1.7471857706 0.8929994537
| 28> H 2.0253804816 2.2674588936 -0.7315403263
| 29> H -0.4000898582 2.3068027662 -0.4550748916
| 30> H 0.0612989371 1.1230415247 -1.683149093
| 31> H 1.5805955903 -0.6762000405 1.4840146423
| 32> H 2.0501787545 -1.8917463086 0.289190517
| 33> H -0.3771256745 -2.0114959857 1.6284940307
| 34> H -2.1070543224 -0.3813022228 -1.3434704727
| 35> H -4.0275960401 -0.7409161987 0.185746129
| 36> H -3.0513821587 -0.2074535144 1.553510618
| 37> H -2.6335075866 -1.692112327 0.6841485613
| 38> H -2.3595166763 2.0458218669 -1.4082423196
| 39> H -2.7303363931 2.0985449693 0.322044943
| 40> H -3.8566191051 1.3536961891 -0.8086318953
| 41> *
| 42>
| 43>                          ****END OF INPUT****

CARTESIAN COORDINATES (ANGSTROEM)
---------------------------------
  C      3.742532    0.268479    0.085995
  C      2.288242    0.157467   -0.363099
  H      2.266788   -0.102139   -1.427463
  C      1.540125    1.471357   -0.163571
  C      0.088114    1.346546   -0.613804
  C     -0.681310    0.251292    0.138024
  H     -0.710853    0.512189    1.202784
  C      0.093719   -1.076256   -0.016778
  H      0.057363   -1.379148   -1.070578
  C      1.555468   -0.926442    0.419425
  O     -0.485960   -2.165786    0.679465
  C     -2.136316    0.134652   -0.376497
  C     -3.013416   -0.681894    0.574924
  C     -2.802583    1.498099   -0.582167
  H      3.795400    0.526111    1.141503
  H      4.261861   -0.674863   -0.064344
  H      4.257139    1.039724   -0.481814
  H      1.573394    1.747186    0.892999
  H      2.025380    2.267459   -0.731540
  H     -0.400090    2.306803   -0.455075
  H      0.061299    1.123042   -1.683149
  H      1.580596   -0.676200    1.484015
  H      2.050179   -1.891746    0.289191
  H     -0.377126   -2.011496    1.628494
  H     -2.107054   -0.381302   -1.343470
  H     -4.027596   -0.740916    0.185746
  H     -3.051382   -0.207454    1.553511
  H     -2.633508   -1.692112    0.684149
  H     -2.359517    2.045822   -1.408242
  H     -2.730336    2.098545    0.322045
  H     -3.856619    1.353696   -0.808632

 Total Charge           Charge          ....    0
 Multiplicity           Mult            ....    1
 Number of Electrons    NEL             ....   88
 Basis Dimension        Dim             ....  314

ORBITAL ENERGIES
----------------

  NO   OCC          E(Eh)            E(eV)
   0   2.0000     -18.943879      -515.4892
   1   2.0000     -10.069490      -274.0047
   2   2.0000     -10.023076      -272.7418
   3   2.0000     -10.021954      -272.7112
   4   2.0000     -10.020315      -272.6666
   5   2.0000     -10.012588      -272.4564
   6   2.0000     -10.011746      -272.4335
   7   2.0000     -10.011113      -272.4162
   8   2.0000     -10.006246      -272.2838
   9   2.0000     -10.004129      -272.2262
  10   2.0000      -9.998570      -272.0749
  11   2.0000      -0.983241       -26.7554
  12   2.0000      -0.796060       -21.6619
  13   2.0000      -0.758801       -20.6480
  14   2.0000      -0.703713       -19.1490
  15   2.0000      -0.688480       -18.7345
  16   2.0000      -0.637341       -17.3429
  17   2.0000      -0.633350       -17.2343
  18   2.0000      -0.571871       -15.5614
  19   2.0000      -0.558271       -15.1913
  20   2.0000      -0.521598       -14.1934
  21   2.0000      -0.515540       -14.0286
  22   2.0000      -0.459118       -12.4932
  23   2.0000      -0.431570       -11.7436
  24   2.0000      -0.411502       -11.1975
  25   2.0000      -0.410096       -11.1593
  26   2.0000      -0.398561       -10.8454
  27   2.0000      -0.389943       -10.6109
  28   2.0000      -0.372474       -10.1355
  29   2.0000      -0.368688       -10.0325
  30   2.0000      -0.356737        -9.7073
  31   2.0000      -0.347065        -9.4441
  32   2.0000      -0.339703        -9.2438
  33   2.0000      -0.332922        -9.0593
  34   2.0000      -0.318135        -8.6569
  35   2.0000      -0.304159        -8.2766
  36   2.0000      -0.302105        -8.2207
  37   2.0000      -0.300103        -8.1662
  38   2.0000      -0.289386        -7.8746
  39   2.0000      -0.282965        -7.6999
  40   2.0000      -0.276795        -7.5320
  41   2.0000      -0.265752        -7.2315
  42   2.0000      -0.255234        -6.9453
  43   2.0000      -0.218606        -5.9486
  44   0.0000       0.077714         2.1147
  45   0.0000       0.094284         2.5656
  46   0.0000       0.098839         2.6895
  47   0.0000       0.102956         2.8016
  48   0.0000       0.120697         3.2843

MULLIKEN ATOMIC CHARGES
-----------------------
   0 C :   -0.549140
   1 C :   -0.033883
   2 H :    0.170920
   3 C :   -0.362001
   4 C :   -0.360291
   5 C :   -0.048397
   6 H :    0.195925
   7 C :   -0.166239
   8 H :    0.176303
   9 C :   -0.353162
  10 O :   -0.474068
  11 C :    0.011026
  12 C :   -0.608879
  13 C :   -0.556908
  14 H :    0.162045
  15 H :    0.158530
  16 H :    0.158555
  17 H :    0.164073
  18 H :    0.154790
  19 H :    0.163689
  20 H :    0.168112
  21 H :    0.168372
  22 H :    0.158998
  23 H :    0.345657
  24 H :    0.167660
  25 H :    0.151795
  26 H :    0.161539
  27 H :    0.181027
  28 H :    0.165388
  29 H :    0.172999
  30 H :    0.155562
Sum of atomic charges:    0.0000000

LOEWDIN ATOMIC CHARGES
----------------------
   0 C :   -0.421462
   1 C :   -0.231136
   2 H :    0.161787
   3 C :   -0.296303
   4 C :   -0.287837
   5 C :   -0.193322
   6 H :    0.171660
   7 C :    0.064383
   8 H :    0.188323
   9 C :   -0.268548
  10 O :   -0.649508
  11 C :   -0.228136
  12 C :   -0.425766
  13 C :   -0.426508
  14 H :    0.156486
  15 H :    0.155655
  16 H :    0.155509
  17 H :    0.161190
  18 H :    0.159788
  19 H :    0.164659
  20 H :    0.163988
  21 H :    0.167659
  22 H :    0.166856
  23 H :    0.284400
  24 H :    0.162152
  25 H :    0.150084
  26 H :    0.155044
  27 H :    0.171176
  28 H :    0.155093
  29 H :    0.157739
  30 H :    0.154899

  Mayer bond orders larger than 0.100000
B(  0-C ,  1-C ) :   0.8737 B(  0-C , 14-H ) :   0.9942 B(  0-C , 15-H ) :   0.9754
B(  0-C , 16-H ) :   0.9743 B(  1-C ,  2-H ) :   0.9634 B(  1-C ,  3-C ) :   0.9080
B(  1-C ,  9-C ) :   0.8967 B(  3-C ,  4-C ) :   0.8937 B(  3-C , 17-H ) :   1.0122
B(  3-C , 18-H ) :   0.9464 B(  4-C ,  5-C ) :   0.8731 B(  4-C , 19-H ) :   0.9362
B(  4-C , 20-H ) :   0.9941 B(  5-C ,  6-H ) :   0.9755 B(  5-C ,  7-C ) :   0.9154
B(  5-C , 11-C ) :   0.8297 B(  7-C ,  8-H ) :   0.9870 B(  7-C ,  9-C ) :   0.9072
B(  7-C , 10-O ) :   0.9614 B(  9-C , 21-H ) :   1.0034 B(  9-C , 22-H ) :   0.9471
B( 10-O , 23-H ) :   0.8656 B( 11-C , 12-C ) :   0.8742 B( 11-C , 13-C ) :   0.8402
B( 11-C , 24-H ) :   0.9842 B( 12-C , 25-H ) :   0.9765 B( 12-C , 26-H ) :   0.9915
B( 12-C , 27-H ) :   0.9698 B( 13-C , 28-H ) :   0.9704 B( 13-C , 29-H ) :   0.9894
B( 13-C , 30-H ) :   0.9737

Dispersion correction           -0.010752123
FINAL SINGLE POINT ENERGY      -468.209027388206

DIPOLE MOMENT
-------------

Method             : SCF
Type of density    : Electron Density
Multiplicity       :   1
Irrep              :   0
Energy             :  -468.2136828453080852 Eh
Relativity type    :
Basis              : AO
                                X                 Y                 Z
Electronic contribution:      0.761323281      -4.193396554       0.365393909
Nuclear contribution   :     -0.311815647       4.905610939      -0.074233209
                        -----------------------------------------
Total Dipole Moment    :      0.449507634       0.712214385       0.291160700
                        -----------------------------------------
Magnitude (a.u.)       :      0.891112224
Magnitude (Debye)      :      2.265027270

Rotational constants in cm-1:             0.062019             0.023446             0.017976
Rotational constants in MHz :          1859.272384           702.886204           538.912867

                             ****ORCA TERMINATED NORMALLY****
TOTAL RUN TIME: 0 days 0 hours 0 minutes 59 seconds 319 msec
