                         Program Version 6.0.0  -   RELEASE  -
|  1> ! pbe def2-sv(p) def2/J RI DEFGRID1 loosescf d4 GCP(DFT/SV(P)) printgap
|  2> %output
|  3>     printlevel normal
|  4> end
|  5> * xyz 0 1
|  6> C -1.7462931381 1.0757361489 -0.0282254072
|  7> C -0.8869653643 -0.1540177275 -0.0408612054
|  8> O -1.377688298 -1.2672061664 -0.0422360811
|  9> C 0.62573256 0.0478552745 -0.0091361374
| 10> C 0.9996365166 0.1980598475 1.4755115827
| 11> C 1.071289124 1.2878993327 -0.7857635051
| 12> C 1.3144855847 -1.194901766 -0.5802034665
| 13> H -1.6713292049 1.5691036762 -0.9944280679
| 14> H -2.7813242347 0.7940909641 0.1468393197
| 15> H -1.4143100447 1.7713702116 0.7360172461
| 16> H 0.54809969 1.0882099509 1.9052989019
| 17> H 0.6633003808 -0.6693183913 2.0396622471
| 18> H 2.0794300644 0.2765975496 1.5709890979
| 19> H 2.1571680433 1.3424696197 -0.7762837832
| 20> H 0.6837936688 2.1996859309 -0.3427362937
| 21> H 0.7442518658 1.2297164401 -1.8211795792
| 22> H 0.9643608969 -2.0879283425 -0.0678866937
| 23> H 2.3916519988 -1.1190030722 -0.4610222006
| 24> H 1.084262985 -1.3021300913 -1.6380729691
| 25> *
| 26>
| 27>                          ****END OF INPUT****

CARTESIAN COORDINATES (ANGSTROEM)
---------------------------------
  C     -1.746293    1.075736   -0.028225
  C     -0.886965   -0.154018   -0.040861
  O     -1.377688   -1.267206   -0.042236
  C      0.625733    0.047855   -0.009136
  C      0.999637    0.198060    1.475512
  C      1.071289    1.287899   -0.785764
  C      1.314486   -1.194902   -0.580203
  H     -1.671329    1.569104   -0.994428
  H     -2.781324    0.794091    0.146839
  H     -1.414310    1.771370    0.736017
  H      0.548100    1.088210    1.905299
  H      0.663300   -0.669318    2.039662
  H      2.079430    0.276598    1.570989
  H      2.157168    1.342470   -0.776284
  H      0.683794    2.199686   -0.342736
  H      0.744252    1.229716   -1.821180
  H      0.964361   -2.087928   -0.067887
  H      2.391652   -1.119003   -0.461022
  H      1.084263   -1.302130   -1.638073

 Total Charge           Charge          ....    0
 Multiplicity           Mult            ....    1
 Number of Electrons    NEL             ....   56
 Basis Dimension        Dim             ....  122

ORBITAL ENERGIES
----------------

  NO   OCC          E(Eh)            E(eV)
   0   2.0000     -18.736100      -509.8352
   1   2.0000      -9.969144      -271.2742
   2   2.0000      -9.914147      -269.7777
   3   2.0000      -9.886569      -269.0272
   4   2.0000      -9.885292      -268.9925
   5   2.0000      -9.884751      -268.9777
   6   2.0000      -9.871697      -268.6225
   7   2.0000      -0.933431       -25.3999
   8   2.0000      -0.747404       -20.3379
   9   2.0000      -0.667751       -18.1704
  10   2.0000      -0.624760       -17.0006
  11   2.0000      -0.613280       -16.6882
  12   2.0000      -0.543584       -14.7917
  13   2.0000      -0.446319       -12.1450
  14   2.0000      -0.428065       -11.6482
  15   2.0000      -0.414520       -11.2797
  16   2.0000      -0.404358       -11.0031
  17   2.0000      -0.386165       -10.5081
  18   2.0000      -0.368773       -10.0348
  19   2.0000      -0.361708        -9.8426
  20   2.0000      -0.348008        -9.4698
  21   2.0000      -0.342823        -9.3287
  22   2.0000      -0.327856        -8.9214
  23   2.0000      -0.315293        -8.5796
  24   2.0000      -0.308513        -8.3951
  25   2.0000      -0.292890        -7.9700
  26   2.0000      -0.289463        -7.8767
  27   2.0000      -0.192287        -5.2324
  28   0.0000      -0.047716        -1.2984
  29   0.0000       0.023594         0.6420
  30   0.0000       0.063230         1.7206
  31   0.0000       0.070021         1.9054
  32   0.0000       0.085654         2.3308

MULLIKEN ATOMIC CHARGES
-----------------------
   0 C :   -0.241610
   1 C :    0.034105
   2 O :   -0.167724
   3 C :   -0.278419
   4 C :   -0.219811
   5 C :   -0.218403
   6 C :   -0.201640
   7 H :    0.127287
   8 H :    0.116936
   9 H :    0.121254
  10 H :    0.099255
  11 H :    0.113835
  12 H :    0.106775
  13 H :    0.102827
  14 H :    0.099676
  15 H :    0.105410
  16 H :    0.113593
  17 H :    0.090358
  18 H :    0.096296
Sum of atomic charges:   -0.0000000

LOEWDIN ATOMIC CHARGES
----------------------
   0 C :   -0.359448
   1 C :    0.059547
   2 O :   -0.129107
   3 C :   -0.132353
   4 C :   -0.306665
   5 C :   -0.317328
   6 C :   -0.315435
   7 H :    0.145420
   8 H :    0.134824
   9 H :    0.135376
  10 H :    0.115973
  11 H :    0.125924
  12 H :    0.123174
  13 H :    0.123261
  14 H :    0.116812
  15 H :    0.120094
  16 H :    0.125292
  17 H :    0.115315
  18 H :    0.119323

  Mayer bond orders larger than 0.100000
B(  0-C ,  1-C ) :   1.1056 B(  0-C ,  7-H ) :   0.9102 B(  0-C ,  8-H ) :   0.9285
B(  0-C ,  9-H ) :   0.9253 B(  1-C ,  2-O ) :   2.1943 B(  1-C ,  3-C ) :   0.8719
B(  3-C ,  4-C ) :   1.0477 B(  3-C ,  5-C ) :   1.0731 B(  3-C ,  6-C ) :   1.0871
B(  4-C , 10-H ) :   0.9444 B(  4-C , 11-H ) :   0.9456 B(  4-C , 12-H ) :   0.9442
B(  5-C , 13-H ) :   0.9445 B(  5-C , 14-H ) :   0.9323 B(  5-C , 15-H ) :   0.9494
B(  6-C , 16-H ) :   0.9358 B(  6-C , 17-H ) :   0.9456 B(  6-C , 18-H ) :   0.9513

Dispersion correction           -0.016300976
FINAL SINGLE POINT ENERGY      -310.355683293364

DIPOLE MOMENT
-------------

Method             : SCF
Type of density    : Electron Density
Multiplicity       :   1
Irrep              :   0
Energy             :  -310.4190829055543759 Eh
Relativity type    :
Basis              : AO
                                X                 Y                 Z
Electronic contribution:     -4.651643339      -3.858161066      -0.242831874
Nuclear contribution   :      5.091958990       4.759149858       0.278193539
                        -----------------------------------------
Total Dipole Moment    :      0.440315651       0.900988792       0.035361666
                        -----------------------------------------
Magnitude (a.u.)       :      1.003448615
Magnitude (Debye)      :      2.550563682

Rotational constants in cm-1:             0.106966             0.078191             0.064822
Rotational constants in MHz :          3206.762087          2344.109726          1943.302799

                             ****ORCA TERMINATED NORMALLY****
TOTAL RUN TIME: 0 days 0 hours 0 minutes 12 seconds 415 msec
