                         Program Version 6.0.0  -   RELEASE  -
|  1> ! pbe def2-sv(p) def2/J RI DEFGRID1 loosescf d4 GCP(DFT/SV(P)) printgap
|  2> %output
|  3>     printlevel normal
|  4> end
|  5> * xyz 0 1
|  6> C -2.8014530523 -0.0796698363 1.3042998298
|  7> O -1.4865146436 0.1123355502 0.7786220546
|  8> C -1.2963486408 -0.1634653314 -0.5052094085
|  9> O -2.186939319 -0.5634258843 -1.2296324381
| 10> C 0.1352121076 0.0181303044 -0.9500596922
| 11> C 0.9528852908 -1.1901722173 -0.4375885707
| 12> C 1.5877062691 -0.8746196587 0.9105002558
| 13> C 2.6394834657 0.2312260182 0.7588387983
| 14> C 2.2544008907 1.2204597909 -0.3483065464
| 15> C 0.7381231476 1.3414376861 -0.4534696471
| 16> H -3.5229242399 0.4952778471 0.722632615
| 17> H -2.7609471802 0.2673433501 2.3319851223
| 18> H -3.0709161913 -1.135459343 1.2574703041
| 19> H 0.119695824 -0.0065437718 -2.0434110356
| 20> H 0.303663065 -2.0655497307 -0.3637756984
| 21> H 1.7348904011 -1.4227750035 -1.1605635834
| 22> H 0.8048005572 -0.5594906331 1.6013128518
| 23> H 2.04965399 -1.7730850048 1.3211596612
| 24> H 2.740761661 0.7583625246 1.7082519164
| 25> H 3.6092166567 -0.2094647947 0.523258382
| 26> H 2.6886544049 2.198328841 -0.1389909563
| 27> H 2.6487535946 0.8849216538 -1.3086975794
| 28> H 0.3297740621 1.5882290316 0.5264869912
| 29> H 0.4672346216 2.1424380503 -1.1426450865
| 30> *
| 31>
| 32>                          ****END OF INPUT****

CARTESIAN COORDINATES (ANGSTROEM)
---------------------------------
  C     -2.801453   -0.079670    1.304300
  O     -1.486515    0.112336    0.778622
  C     -1.296349   -0.163465   -0.505209
  O     -2.186939   -0.563426   -1.229632
  C      0.135212    0.018130   -0.950060
  C      0.952885   -1.190172   -0.437589
  C      1.587706   -0.874620    0.910500
  C      2.639483    0.231226    0.758839
  C      2.254401    1.220460   -0.348307
  C      0.738123    1.341438   -0.453470
  H     -3.522924    0.495278    0.722633
  H     -2.760947    0.267343    2.331985
  H     -3.070916   -1.135459    1.257470
  H      0.119696   -0.006544   -2.043411
  H      0.303663   -2.065550   -0.363776
  H      1.734890   -1.422775   -1.160564
  H      0.804801   -0.559491    1.601313
  H      2.049654   -1.773085    1.321160
  H      2.740762    0.758363    1.708252
  H      3.609217   -0.209465    0.523258
  H      2.688654    2.198329   -0.138991
  H      2.648754    0.884922   -1.308698
  H      0.329774    1.588229    0.526487
  H      0.467235    2.142438   -1.142645

 Total Charge           Charge          ....    0
 Multiplicity           Mult            ....    1
 Number of Electrons    NEL             ....   78
 Basis Dimension        Dim             ....  168

ORBITAL ENERGIES
----------------

  NO   OCC          E(Eh)            E(eV)
   0   2.0000     -18.799882      -511.5708
   1   2.0000     -18.729782      -509.6633
   2   2.0000     -10.000639      -272.1312
   3   2.0000      -9.942164      -270.5400
   4   2.0000      -9.902203      -269.4527
   5   2.0000      -9.891122      -269.1511
   6   2.0000      -9.885720      -269.0041
   7   2.0000      -9.884037      -268.9583
   8   2.0000      -9.882671      -268.9212
   9   2.0000      -9.881627      -268.8928
  10   2.0000      -1.006422       -27.3861
  11   2.0000      -0.905510       -24.6402
  12   2.0000      -0.763287       -20.7701
  13   2.0000      -0.691607       -18.8196
  14   2.0000      -0.666917       -18.1477
  15   2.0000      -0.650526       -17.7017
  16   2.0000      -0.561322       -15.2744
  17   2.0000      -0.556006       -15.1297
  18   2.0000      -0.509421       -13.8621
  19   2.0000      -0.476361       -12.9624
  20   2.0000      -0.456008       -12.4086
  21   2.0000      -0.443539       -12.0693
  22   2.0000      -0.433406       -11.7936
  23   2.0000      -0.417953       -11.3731
  24   2.0000      -0.394990       -10.7482
  25   2.0000      -0.381517       -10.3816
  26   2.0000      -0.367917       -10.0115
  27   2.0000      -0.356004        -9.6874
  28   2.0000      -0.339641        -9.2421
  29   2.0000      -0.335148        -9.1198
  30   2.0000      -0.326580        -8.8867
  31   2.0000      -0.322741        -8.7822
  32   2.0000      -0.313387        -8.5277
  33   2.0000      -0.302990        -8.2448
  34   2.0000      -0.273111        -7.4317
  35   2.0000      -0.265638        -7.2284
  36   2.0000      -0.264448        -7.1960
  37   2.0000      -0.254994        -6.9387
  38   2.0000      -0.209994        -5.7142
  39   0.0000      -0.017331        -0.4716
  40   0.0000       0.027464         0.7473
  41   0.0000       0.044305         1.2056
  42   0.0000       0.060609         1.6492
  43   0.0000       0.071765         1.9528

MULLIKEN ATOMIC CHARGES
-----------------------
   0 C :   -0.105025
   1 O :   -0.241694
   2 C :    0.121003
   3 O :   -0.206038
   4 C :   -0.140163
   5 C :   -0.144372
   6 C :   -0.151285
   7 C :   -0.159936
   8 C :   -0.149006
   9 C :   -0.124476
  10 H :    0.121039
  11 H :    0.120138
  12 H :    0.118597
  13 H :    0.080284
  14 H :    0.098965
  15 H :    0.085215
  16 H :    0.086571
  17 H :    0.085593
  18 H :    0.081297
  19 H :    0.081029
  20 H :    0.086010
  21 H :    0.075787
  22 H :    0.091116
  23 H :    0.089353
Sum of atomic charges:    0.0000000

LOEWDIN ATOMIC CHARGES
----------------------
   0 C :   -0.202503
   1 O :   -0.066094
   2 C :    0.041160
   3 O :   -0.170408
   4 C :   -0.157930
   5 C :   -0.208250
   6 C :   -0.234582
   7 C :   -0.228781
   8 C :   -0.228652
   9 C :   -0.220810
  10 H :    0.120866
  11 H :    0.119672
  12 H :    0.119502
  13 H :    0.132242
  14 H :    0.122651
  15 H :    0.119827
  16 H :    0.116541
  17 H :    0.118626
  18 H :    0.116761
  19 H :    0.115750
  20 H :    0.119084
  21 H :    0.114512
  22 H :    0.119917
  23 H :    0.120900

  Mayer bond orders larger than 0.100000
B(  0-C ,  1-O ) :   0.9378 B(  0-C , 10-H ) :   0.9501 B(  0-C , 11-H ) :   0.9580
B(  0-C , 12-H ) :   0.9536 B(  1-O ,  2-C ) :   1.1987 B(  2-C ,  3-O ) :   2.0688
B(  2-C ,  4-C ) :   0.9745 B(  4-C ,  5-C ) :   1.0718 B(  4-C ,  9-C ) :   1.0823
B(  4-C , 13-H ) :   0.8779 B(  5-C ,  6-C ) :   1.1787 B(  5-C , 14-H ) :   0.9172
B(  5-C , 15-H ) :   0.9036 B(  6-C ,  7-C ) :   1.1426 B(  6-C , 16-H ) :   0.8983
B(  6-C , 17-H ) :   0.9195 B(  7-C ,  8-C ) :   1.1422 B(  7-C , 18-H ) :   0.9216
B(  7-C , 19-H ) :   0.9218 B(  8-C ,  9-C ) :   1.1848 B(  8-C , 20-H ) :   0.9216
B(  8-C , 21-H ) :   0.9068 B(  9-C , 22-H ) :   0.8967 B(  9-C , 23-H ) :   0.9181

Dispersion correction           -0.023323780
FINAL SINGLE POINT ENERGY      -462.695902504527

DIPOLE MOMENT
-------------

Method             : SCF
Type of density    : Electron Density
Multiplicity       :   1
Irrep              :   0
Energy             :  -462.7839666574481043 Eh
Relativity type    :
Basis              : AO
                                X                 Y                 Z
Electronic contribution:     -7.281653680      -0.887199783      -2.900242634
Nuclear contribution   :      7.584385156       1.083962284       3.590690660
                        -----------------------------------------
Total Dipole Moment    :      0.302731476       0.196762501       0.690448027
                        -----------------------------------------
Magnitude (a.u.)       :      0.779153583
Magnitude (Debye)      :      1.980451019

Rotational constants in cm-1:             0.081666             0.028664             0.027428
Rotational constants in MHz :          2448.280334           859.321590           822.275845

                             ****ORCA TERMINATED NORMALLY****
TOTAL RUN TIME: 0 days 0 hours 0 minutes 11 seconds 109 msec
