                         Program Version 6.0.0  -   RELEASE  -
|  1> ! wb97x-v def2-tzvp def2/J RIJCOSX DEFGRID2 scfconv7 GCP(DFT/TZ) printgap
|  2> %output
|  3>     printlevel normal
|  4> end
|  5> * xyz 0 1
|  6> C -2.291317484364376 0.30133194900653226 0.09937333743476404
|  7> C -1.374724210829801 1.3409150503854208 -0.04981056571501086
|  8> C -0.01538861632800608 1.0659596589593074 -0.17166878339643277
|  9> C 0.44570234025704913 -0.2530611025211082 -0.14110396065708655
| 10> C -0.4776501794343391 -1.2889196542555215 0.017816142757947673
| 11> C -1.8388751610571195 -1.0154820869530308 0.13105724131391172
| 12> C 1.9118179108157252 -0.5700405299923921 -0.3039211084993263
| 13> O 2.7784877591007002 0.39489767695689487 0.312419291055859
| 14> H -3.3508592278372413 0.5171323137120106 0.19448737919537848
| 15> H -1.720453263526035 2.3699203732085747 -0.07346923311957902
| 16> H 0.6928160189984776 1.880153356516867 -0.2906852914723006
| 17> H -0.12654671018477523 -2.316894356962378 0.05468775500909287
| 18> H -2.544700233759056 -1.8311412520533112 0.25481807711079146
| 19> H 2.11478933788969 -1.5771497304785773 0.08418164954632738
| 20> H 2.179528584098688 -0.5651805677688212 -1.3668638991956579
| 21> H 2.5738703834096275 0.39852676736284903 1.2571255088259163
| 22> *
| 23>
| 24>                          ****END OF INPUT****

CARTESIAN COORDINATES (ANGSTROEM)
---------------------------------
  C     -2.291317    0.301332    0.099373
  C     -1.374724    1.340915   -0.049811
  C     -0.015389    1.065960   -0.171669
  C      0.445702   -0.253061   -0.141104
  C     -0.477650   -1.288920    0.017816
  C     -1.838875   -1.015482    0.131057
  C      1.911818   -0.570041   -0.303921
  O      2.778488    0.394898    0.312419
  H     -3.350859    0.517132    0.194487
  H     -1.720453    2.369920   -0.073469
  H      0.692816    1.880153   -0.290685
  H     -0.126547   -2.316894    0.054688
  H     -2.544700   -1.831141    0.254818
  H      2.114789   -1.577150    0.084182
  H      2.179529   -0.565181   -1.366864
  H      2.573870    0.398527    1.257126

 Total Charge           Charge          ....    0
 Multiplicity           Mult            ....    1
 Number of Electrons    NEL             ....   58
 Basis Dimension        Dim             ....  296

ORBITAL ENERGIES
----------------

  NO   OCC          E(Eh)            E(eV)
   0   2.0000     -21.675755      -589.8273
   1   2.0000     -12.100457      -329.2702
   2   2.0000     -12.061152      -328.2006
   3   2.0000     -12.056309      -328.0688
   4   2.0000     -12.055273      -328.0407
   5   2.0000     -12.054076      -328.0081
   6   2.0000     -12.052659      -327.9695
   7   2.0000     -12.050972      -327.9236
   8   2.0000      -1.675047       -45.5803
   9   2.0000      -1.387884       -37.7662
  10   2.0000      -1.297715       -35.3126
  11   2.0000      -1.275429       -34.7062
  12   2.0000      -1.207588       -32.8601
  13   2.0000      -1.110452       -30.2169
  14   2.0000      -1.102607       -30.0035
  15   2.0000      -1.033825       -28.1318
  16   2.0000      -0.969956       -26.3938
  17   2.0000      -0.964844       -26.2547
  18   2.0000      -0.947489       -25.7825
  19   2.0000      -0.932626       -25.3780
  20   2.0000      -0.904842       -24.6220
  21   2.0000      -0.876448       -23.8494
  22   2.0000      -0.859519       -23.3887
  23   2.0000      -0.829507       -22.5720
  24   2.0000      -0.811693       -22.0873
  25   2.0000      -0.804419       -21.8894
  26   2.0000      -0.767543       -20.8859
  27   2.0000      -0.640992       -17.4423
  28   2.0000      -0.639846       -17.4111
  29   0.0000      -0.250295        -6.8109
  30   0.0000      -0.239166        -6.5080
  31   0.0000      -0.143546        -3.9061
  32   0.0000      -0.067668        -1.8413
  33   0.0000      -0.050723        -1.3802

MULLIKEN ATOMIC CHARGES
-----------------------
   0 C :   -0.141466
   1 C :   -0.081629
   2 C :   -0.209297
   3 C :    0.068741
   4 C :   -0.218837
   5 C :   -0.097766
   6 C :    0.012775
   7 O :   -0.448649
   8 H :    0.118453
   9 H :    0.119798
  10 H :    0.134887
  11 H :    0.114293
  12 H :    0.118294
  13 H :    0.101763
  14 H :    0.107485
  15 H :    0.301154
Sum of atomic charges:    0.0000000

LOEWDIN ATOMIC CHARGES
----------------------
   0 C :   -0.141947
   1 C :   -0.136856
   2 C :   -0.110525
   3 C :   -0.163760
   4 C :   -0.117367
   5 C :   -0.138724
   6 C :   -0.284022
   7 O :   -0.049815
   8 H :    0.141065
   9 H :    0.141980
  10 H :    0.148927
  11 H :    0.143363
  12 H :    0.141682
  13 H :    0.120885
  14 H :    0.134601
  15 H :    0.170512

  Mayer bond orders larger than 0.100000
B(  0-C ,  1-C ) :   1.4151 B(  0-C ,  5-C ) :   1.4292 B(  0-C ,  8-H ) :   0.9721
B(  1-C ,  2-C ) :   1.4258 B(  1-C ,  9-H ) :   0.9748 B(  2-C ,  3-C ) :   1.3901
B(  2-C , 10-H ) :   0.9638 B(  3-C ,  4-C ) :   1.3947 B(  3-C ,  6-C ) :   0.9591
B(  4-C ,  5-C ) :   1.4383 B(  4-C , 11-H ) :   0.9672 B(  5-C , 12-H ) :   0.9734
B(  6-C ,  7-O ) :   0.9827 B(  6-C , 13-H ) :   0.9895 B(  6-C , 14-H ) :   0.9510
B(  7-O , 15-H ) :   0.9004

FINAL SINGLE POINT ENERGY      -346.793175354353

DIPOLE MOMENT
-------------

Method             : SCF
Type of density    : Electron Density
Multiplicity       :   1
Irrep              :   0
Energy             :  -346.8018647341526730 Eh
Relativity type    :
Basis              : AO
                                X                 Y                 Z
Electronic contribution:     -0.259194826       0.740172953       0.176241732
Nuclear contribution   :     -0.167121382      -1.059567576       0.105585374
                        -----------------------------------------
Total Dipole Moment    :     -0.426316207      -0.319394623       0.281827106
                        -----------------------------------------
Magnitude (a.u.)       :      0.602648282
Magnitude (Debye)      :      1.531810198

Rotational constants in cm-1:             0.161447             0.049073             0.038902
Rotational constants in MHz :          4840.055688          1471.171327          1166.263031

                             ****ORCA TERMINATED NORMALLY****
TOTAL RUN TIME: 0 days 0 hours 2 minutes 11 seconds 953 msec
