                         Program Version 6.0.0  -   RELEASE  -
|  1> ! wb97x-v def2-tzvp def2/J RIJCOSX DEFGRID2 scfconv7 GCP(DFT/TZ) printgap
|  2> %output
|  3>     printlevel normal
|  4> end
|  5> %cpcm
|  6>     smd true
|  7>     smdsolvent "water"
|  8> end
|  9> * xyz 0 1
| 10> C -2.291317484364376 0.30133194900653226 0.09937333743476404
| 11> C -1.374724210829801 1.3409150503854208 -0.04981056571501086
| 12> C -0.01538861632800608 1.0659596589593074 -0.17166878339643277
| 13> C 0.44570234025704913 -0.2530611025211082 -0.14110396065708655
| 14> C -0.4776501794343391 -1.2889196542555215 0.017816142757947673
| 15> C -1.8388751610571195 -1.0154820869530308 0.13105724131391172
| 16> C 1.9118179108157252 -0.5700405299923921 -0.3039211084993263
| 17> O 2.7784877591007002 0.39489767695689487 0.312419291055859
| 18> H -3.3508592278372413 0.5171323137120106 0.19448737919537848
| 19> H -1.720453263526035 2.3699203732085747 -0.07346923311957902
| 20> H 0.6928160189984776 1.880153356516867 -0.2906852914723006
| 21> H -0.12654671018477523 -2.316894356962378 0.05468775500909287
| 22> H -2.544700233759056 -1.8311412520533112 0.25481807711079146
| 23> H 2.11478933788969 -1.5771497304785773 0.08418164954632738
| 24> H 2.179528584098688 -0.5651805677688212 -1.3668638991956579
| 25> H 2.5738703834096275 0.39852676736284903 1.2571255088259163
| 26> *
| 27>
| 28>                          ****END OF INPUT****

CARTESIAN COORDINATES (ANGSTROEM)
---------------------------------
  C     -2.291317    0.301332    0.099373
  C     -1.374724    1.340915   -0.049811
  C     -0.015389    1.065960   -0.171669
  C      0.445702   -0.253061   -0.141104
  C     -0.477650   -1.288920    0.017816
  C     -1.838875   -1.015482    0.131057
  C      1.911818   -0.570041   -0.303921
  O      2.778488    0.394898    0.312419
  H     -3.350859    0.517132    0.194487
  H     -1.720453    2.369920   -0.073469
  H      0.692816    1.880153   -0.290685
  H     -0.126547   -2.316894    0.054688
  H     -2.544700   -1.831141    0.254818
  H      2.114789   -1.577150    0.084182
  H      2.179529   -0.565181   -1.366864
  H      2.573870    0.398527    1.257126

 Total Charge           Charge          ....    0
 Multiplicity           Mult            ....    1
 Number of Electrons    NEL             ....   58
 Basis Dimension        Dim             ....  296

ORBITAL ENERGIES
----------------

  NO   OCC          E(Eh)            E(eV)
   0   2.0000     -21.676699      -589.8530
   1   2.0000     -12.092836      -329.0628
   2   2.0000     -12.057626      -328.1047
   3   2.0000     -12.050560      -327.9124
   4   2.0000     -12.050396      -327.9080
   5   2.0000     -12.048249      -327.8495
   6   2.0000     -12.047637      -327.8329
   7   2.0000     -12.046738      -327.8084
   8   2.0000      -1.676081       -45.6085
   9   2.0000      -1.384589       -37.6766
  10   2.0000      -1.293431       -35.1961
  11   2.0000      -1.271516       -34.5997
  12   2.0000      -1.203541       -32.7500
  13   2.0000      -1.105789       -30.0900
  14   2.0000      -1.098930       -29.9034
  15   2.0000      -1.032540       -28.0968
  16   2.0000      -0.968614       -26.3573
  17   2.0000      -0.963516       -26.2186
  18   2.0000      -0.943272       -25.6677
  19   2.0000      -0.930847       -25.3296
  20   2.0000      -0.899274       -24.4705
  21   2.0000      -0.870434       -23.6857
  22   2.0000      -0.854961       -23.2647
  23   2.0000      -0.823449       -22.4072
  24   2.0000      -0.806562       -21.9477
  25   2.0000      -0.798405       -21.7257
  26   2.0000      -0.765032       -20.8176
  27   2.0000      -0.638520       -17.3750
  28   2.0000      -0.637128       -17.3371
  29   0.0000      -0.246916        -6.7189
  30   0.0000      -0.236234        -6.4283
  31   0.0000      -0.138735        -3.7752
  32   0.0000      -0.063563        -1.7296
  33   0.0000      -0.040291        -1.0964

MULLIKEN ATOMIC CHARGES
-----------------------
   0 C :   -0.189779
   1 C :   -0.137532
   2 C :   -0.248165
   3 C :    0.103523
   4 C :   -0.259731
   5 C :   -0.136211
   6 C :    0.005423
   7 O :   -0.552373
   8 H :    0.160565
   9 H :    0.161121
  10 H :    0.150877
  11 H :    0.158738
  12 H :    0.161178
  13 H :    0.132290
  14 H :    0.130031
  15 H :    0.360045
Sum of atomic charges:    0.0000000

LOEWDIN ATOMIC CHARGES
----------------------
   0 C :   -0.153048
   1 C :   -0.147494
   2 C :   -0.120927
   3 C :   -0.164626
   4 C :   -0.119989
   5 C :   -0.147708
   6 C :   -0.278794
   7 O :   -0.087783
   8 H :    0.150092
   9 H :    0.150928
  10 H :    0.151602
  11 H :    0.154469
  12 H :    0.151058
  13 H :    0.131430
  14 H :    0.139138
  15 H :    0.191653

  Mayer bond orders larger than 0.100000
B(  0-C ,  1-C ) :   1.3980 B(  0-C ,  5-C ) :   1.4056 B(  0-C ,  8-H ) :   0.9746
B(  1-C ,  2-C ) :   1.4258 B(  1-C ,  9-H ) :   0.9761 B(  2-C ,  3-C ) :   1.3433
B(  2-C , 10-H ) :   0.9732 B(  3-C ,  4-C ) :   1.3822 B(  3-C ,  6-C ) :   0.9632
B(  4-C ,  5-C ) :   1.4161 B(  4-C , 11-H ) :   0.9732 B(  5-C , 12-H ) :   0.9758
B(  6-C ,  7-O ) :   0.9568 B(  6-C , 13-H ) :   0.9872 B(  6-C , 14-H ) :   0.9512
B(  7-O , 15-H ) :   0.8661

FINAL SINGLE POINT ENERGY      -346.802639599322

DIPOLE MOMENT
-------------

Method             : SCF
Type of density    : Electron Density
Multiplicity       :   1
Irrep              :   0
Energy             :  -346.8113289791215266 Eh
Relativity type    :
Basis              : AO
                                X                 Y                 Z
Electronic contribution:     -0.372655791       0.545596061       0.291089191
Nuclear contribution   :     -0.167121382      -1.059567576       0.105585374
                        -----------------------------------------
Total Dipole Moment    :     -0.539777173      -0.513971515       0.396674566
                        -----------------------------------------
Magnitude (a.u.)       :      0.844320334
Magnitude (Debye)      :      2.146091736

Rotational constants in cm-1:             0.161447             0.049073             0.038902
Rotational constants in MHz :          4840.055688          1471.171327          1166.263031

                             ****ORCA TERMINATED NORMALLY****
TOTAL RUN TIME: 0 days 0 hours 2 minutes 16 seconds 452 msec
