                         Program Version 6.0.0  -   RELEASE  -
|  1> ! r2scan-3c def2/J RI DEFGRID2 scfconv6 printgap
|  2> %output
|  3>     printlevel normal
|  4> end
|  5> * xyz 0 1
|  6> C -1.1806114062 -1.203435904 8.8785e-06
|  7> C 0.199812568 -1.2051503267 -2.0045e-05
|  8> C 0.8810700853 0.0008723283 -2.58229e-05
|  9> C 0.1992656542 1.2042664385 -4.0978e-06
| 10> C -1.1839068377 1.2019545294 -1.40401e-05
| 11> C -1.8848703054 -0.0003581374 -2.54755e-05
| 12> O -3.237136275 -0.0557997951 2.40798e-05
| 13> Cl 2.6255763986 0.001713769 1.26523e-05
| 14> H -1.7342309456 -2.1281066046 4.9985e-05
| 15> H 0.7437637196 -2.1355123306 -2.35567e-05
| 16> H 0.7425145463 2.1351807737 4.70638e-05
| 17> H -1.7145901353 2.1417439216 1.97593e-05
| 18> H -3.6224895953 0.8342024946 3.99654e-05
| 19> *
| 20>
| 21>                          ****END OF INPUT****

CARTESIAN COORDINATES (ANGSTROEM)
---------------------------------
  C     -1.180611   -1.203436    0.000009
  C      0.199813   -1.205150   -0.000020
  C      0.881070    0.000872   -0.000026
  C      0.199266    1.204266   -0.000004
  C     -1.183907    1.201955   -0.000014
  C     -1.884870   -0.000358   -0.000025
  O     -3.237136   -0.055800    0.000024
  Cl     2.625576    0.001714    0.000013
  H     -1.734231   -2.128107    0.000050
  H      0.743764   -2.135512   -0.000024
  H      0.742515    2.135181    0.000047
  H     -1.714590    2.141744    0.000020
  H     -3.622490    0.834202    0.000040

 Total Charge           Charge          ....    0
 Multiplicity           Mult            ....    1
 Number of Electrons    NEL             ....   66
 Basis Dimension        Dim             ....  190

ORBITAL ENERGIES
----------------

  NO   OCC          E(Eh)            E(eV)
   0   2.0000    -101.215333     -2754.2092
   1   2.0000     -18.997130      -516.9382
   2   2.0000     -10.109662      -275.0979
   3   2.0000     -10.095666      -274.7170
   4   2.0000     -10.053364      -273.5659
   5   2.0000     -10.052049      -273.5302
   6   2.0000     -10.050626      -273.4914
   7   2.0000     -10.045571      -273.3539
   8   2.0000      -9.371167      -255.0024
   9   2.0000      -7.117369      -193.6735
  10   2.0000      -7.107359      -193.4011
  11   2.0000      -7.107076      -193.3934
  12   2.0000      -1.042985       -28.3811
  13   2.0000      -0.860652       -23.4195
  14   2.0000      -0.802799       -21.8453
  15   2.0000      -0.737553       -20.0698
  16   2.0000      -0.700343       -19.0573
  17   2.0000      -0.611009       -16.6264
  18   2.0000      -0.582175       -15.8418
  19   2.0000      -0.533173       -14.5084
  20   2.0000      -0.475361       -12.9352
  21   2.0000      -0.455321       -12.3899
  22   2.0000      -0.425420       -11.5763
  23   2.0000      -0.410167       -11.1612
  24   2.0000      -0.398927       -10.8554
  25   2.0000      -0.378363       -10.2958
  26   2.0000      -0.357913        -9.7393
  27   2.0000      -0.354177        -9.6376
  28   2.0000      -0.325878        -8.8676
  29   2.0000      -0.289741        -7.8843
  30   2.0000      -0.283177        -7.7056
  31   2.0000      -0.254275        -6.9192
  32   2.0000      -0.207992        -5.6597
  33   0.0000      -0.048547        -1.3210
  34   0.0000      -0.029144        -0.7930
  35   0.0000       0.011810         0.3214
  36   0.0000       0.047744         1.2992
  37   0.0000       0.094175         2.5626

MULLIKEN ATOMIC CHARGES
-----------------------
   0 C :   -0.270055
   1 C :   -0.182736
   2 C :    0.168781
   3 C :   -0.192936
   4 C :   -0.302090
   5 C :    0.409418
   6 O :   -0.410393
   7 Cl:   -0.163636
   8 H :    0.161339
   9 H :    0.163523
  10 H :    0.162588
  11 H :    0.141603
  12 H :    0.314593
Sum of atomic charges:   -0.0000000

LOEWDIN ATOMIC CHARGES
----------------------
   0 C :   -0.132296
   1 C :   -0.159307
   2 C :   -0.184008
   3 C :   -0.161263
   4 C :   -0.163085
   5 C :    0.180707
   6 O :   -0.490990
   7 Cl:    0.109879
   8 H :    0.183246
   9 H :    0.179573
  10 H :    0.179135
  11 H :    0.171631
  12 H :    0.286779

  Mayer bond orders larger than 0.100000
B(  0-C ,  1-C ) :   1.3865 B(  0-C ,  5-C ) :   1.4211 B(  0-C ,  6-O ) :   0.1002
B(  0-C ,  8-H ) :   0.9469 B(  1-C ,  2-C ) :   1.3885 B(  1-C ,  9-H ) :   0.9406
B(  2-C ,  3-C ) :   1.4158 B(  2-C ,  7-Cl) :   0.8976 B(  3-C ,  4-C ) :   1.3943
B(  3-C , 10-H ) :   0.9333 B(  4-C ,  5-C ) :   1.3434 B(  4-C , 11-H ) :   0.9364
B(  5-C ,  6-O ) :   0.9244 B(  6-O , 12-H ) :   0.8817

Dispersion correction           -0.004463949
FINAL SINGLE POINT ENERGY      -766.980732707161

DIPOLE MOMENT
-------------

Method             : SCF
Type of density    : Electron Density
Multiplicity       :   1
Irrep              :   0
Energy             :  -766.9812662611464020 Eh
Relativity type    :
Basis              : AO
                                X                 Y                 Z
Electronic contribution:      7.993026562      -0.287802888      -0.000068332
Nuclear contribution   :     -8.811698268       0.791984889       0.000108356
                        -----------------------------------------
Total Dipole Moment    :     -0.818671705       0.504182001       0.000040024
                        -----------------------------------------
Magnitude (a.u.)       :      0.961469112
Magnitude (Debye)      :      2.443860266

Rotational constants in cm-1:             0.189959             0.032486             0.027742
Rotational constants in MHz :          5694.833065           973.907285           831.677216

                             ****ORCA TERMINATED NORMALLY****
TOTAL RUN TIME: 0 days 0 hours 0 minutes 21 seconds 261 msec
