                         Program Version 6.0.0  -   RELEASE  -
|  1> ! r2scan-3c def2/J RI DEFGRID2 scfconv6 printgap
|  2> %output
|  3>     printlevel normal
|  4> end
|  5> %cpcm
|  6>     smd true
|  7>     smdsolvent "water"
|  8> end
|  9> * xyz 0 1
| 10> C -1.1806114062 -1.203435904 8.8785e-06
| 11> C 0.199812568 -1.2051503267 -2.0045e-05
| 12> C 0.8810700853 0.0008723283 -2.58229e-05
| 13> C 0.1992656542 1.2042664385 -4.0978e-06
| 14> C -1.1839068377 1.2019545294 -1.40401e-05
| 15> C -1.8848703054 -0.0003581374 -2.54755e-05
| 16> O -3.237136275 -0.0557997951 2.40798e-05
| 17> Cl 2.6255763986 0.001713769 1.26523e-05
| 18> H -1.7342309456 -2.1281066046 4.9985e-05
| 19> H 0.7437637196 -2.1355123306 -2.35567e-05
| 20> H 0.7425145463 2.1351807737 4.70638e-05
| 21> H -1.7145901353 2.1417439216 1.97593e-05
| 22> H -3.6224895953 0.8342024946 3.99654e-05
| 23> *
| 24>
| 25>                          ****END OF INPUT****

CARTESIAN COORDINATES (ANGSTROEM)
---------------------------------
  C     -1.180611   -1.203436    0.000009
  C      0.199813   -1.205150   -0.000020
  C      0.881070    0.000872   -0.000026
  C      0.199266    1.204266   -0.000004
  C     -1.183907    1.201955   -0.000014
  C     -1.884870   -0.000358   -0.000025
  O     -3.237136   -0.055800    0.000024
  Cl     2.625576    0.001714    0.000013
  H     -1.734231   -2.128107    0.000050
  H      0.743764   -2.135512   -0.000024
  H      0.742515    2.135181    0.000047
  H     -1.714590    2.141744    0.000020
  H     -3.622490    0.834202    0.000040

 Total Charge           Charge          ....    0
 Multiplicity           Mult            ....    1
 Number of Electrons    NEL             ....   66
 Basis Dimension        Dim             ....  190

ORBITAL ENERGIES
----------------

  NO   OCC          E(Eh)            E(eV)
   0   2.0000    -101.219695     -2754.3279
   1   2.0000     -18.986556      -516.6505
   2   2.0000     -10.103214      -274.9224
   3   2.0000     -10.093312      -274.6530
   4   2.0000     -10.047111      -273.3958
   5   2.0000     -10.046881      -273.3895
   6   2.0000     -10.040231      -273.2086
   7   2.0000     -10.039463      -273.1877
   8   2.0000      -9.375705      -255.1259
   9   2.0000      -7.121722      -193.7919
  10   2.0000      -7.111993      -193.5272
  11   2.0000      -7.111670      -193.5184
  12   2.0000      -1.032230       -28.0884
  13   2.0000      -0.859728       -23.3944
  14   2.0000      -0.801682       -21.8149
  15   2.0000      -0.730901       -19.8888
  16   2.0000      -0.696171       -18.9438
  17   2.0000      -0.602502       -16.3949
  18   2.0000      -0.575058       -15.6481
  19   2.0000      -0.522507       -14.2181
  20   2.0000      -0.470086       -12.7917
  21   2.0000      -0.450001       -12.2451
  22   2.0000      -0.415909       -11.3174
  23   2.0000      -0.400450       -10.8968
  24   2.0000      -0.394935       -10.7467
  25   2.0000      -0.373810       -10.1719
  26   2.0000      -0.354189        -9.6380
  27   2.0000      -0.352152        -9.5825
  28   2.0000      -0.317515        -8.6400
  29   2.0000      -0.290698        -7.9103
  30   2.0000      -0.287119        -7.8129
  31   2.0000      -0.250370        -6.8129
  32   2.0000      -0.206015        -5.6059
  33   0.0000      -0.043892        -1.1944
  34   0.0000      -0.026510        -0.7214
  35   0.0000       0.011895         0.3237
  36   0.0000       0.080437         2.1888
  37   0.0000       0.108120         2.9421

MULLIKEN ATOMIC CHARGES
-----------------------
   0 C :   -0.310052
   1 C :   -0.211562
   2 C :    0.155136
   3 C :   -0.206854
   4 C :   -0.306161
   5 C :    0.363949
   6 O :   -0.449647
   7 Cl:   -0.184837
   8 H :    0.192398
   9 H :    0.195706
  10 H :    0.195262
  11 H :    0.193019
  12 H :    0.373643
Sum of atomic charges:   -0.0000000

LOEWDIN ATOMIC CHARGES
----------------------
   0 C :   -0.143219
   1 C :   -0.168381
   2 C :   -0.200423
   3 C :   -0.168228
   4 C :   -0.152705
   5 C :    0.173715
   6 O :   -0.503246
   7 Cl:    0.090684
   8 H :    0.192508
   9 H :    0.189506
  10 H :    0.189500
  11 H :    0.191252
  12 H :    0.309037

  Mayer bond orders larger than 0.100000
B(  0-C ,  1-C ) :   1.3974 B(  0-C ,  5-C ) :   1.3702 B(  0-C ,  8-H ) :   0.9504
B(  1-C ,  2-C ) :   1.3493 B(  1-C ,  9-H ) :   0.9401 B(  2-C ,  3-C ) :   1.3596
B(  2-C ,  7-Cl) :   0.8874 B(  3-C ,  4-C ) :   1.3784 B(  3-C , 10-H ) :   0.9397
B(  4-C ,  5-C ) :   1.3436 B(  4-C , 11-H ) :   0.9467 B(  5-C ,  6-O ) :   0.9383
B(  6-O , 12-H ) :   0.8495

Dispersion correction           -0.004463949
FINAL SINGLE POINT ENERGY      -766.990293548513

DIPOLE MOMENT
-------------

Method             : SCF
Type of density    : Electron Density
Multiplicity       :   1
Irrep              :   0
Energy             :  -766.9908271024978603 Eh
Relativity type    :
Basis              : AO
                                X                 Y                 Z
Electronic contribution:      7.687557224      -0.024029944      -0.000054705
Nuclear contribution   :     -8.811698268       0.791984889       0.000108356
                        -----------------------------------------
Total Dipole Moment    :     -1.124141043       0.767954945       0.000053650
                        -----------------------------------------
Magnitude (a.u.)       :      1.361413929
Magnitude (Debye)      :      3.460439201

Rotational constants in cm-1:             0.189959             0.032486             0.027742
Rotational constants in MHz :          5694.833065           973.907285           831.677216

                             ****ORCA TERMINATED NORMALLY****
TOTAL RUN TIME: 0 days 0 hours 0 minutes 20 seconds 608 msec
