                         Program Version 6.0.0  -   RELEASE  -
|  1> ! pbe def2-sv(p) def2/J RI DEFGRID1 loosescf d4 GCP(DFT/SV(P)) printgap
|  2> %output
|  3>     printlevel normal
|  4> end
|  5> * xyz 0 1
|  6> C -1.8901232389 -0.5697409909 -0.8223799429
|  7> C -1.220077542 -0.1022108811 0.4826740042
|  8> H -1.9671569648 -0.1118964379 1.2876866192
|  9> C -0.6383466866 1.3150098086 0.3583883932
| 10> H -1.3864899065 1.9551429043 -0.132277817
| 11> C 0.6522835059 1.3297128038 -0.4891466892
| 12> H 1.1434094812 2.2970031165 -0.3108382869
| 13> C 1.6349240263 0.2588460064 0.0194386142
| 14> H 2.4025024046 0.1031429445 -0.7453670807
| 15> C 0.959833814 -1.1083151714 0.2533788832
| 16> H 1.6132950913 -1.6842556982 0.9323248451
| 17> O -0.2466219907 -1.0245117282 0.9637263378
| 18> O 0.8325869157 -1.7545075881 -0.9731755582
| 19> O 2.2938489235 0.6930548247 1.1796658923
| 20> O 0.400778055 1.1332846569 -1.8553881057
| 21> O -0.2841028732 1.8425809455 1.6171816757
| 22> O -2.3675386097 -1.8884562192 -0.7326469339
| 23> H -1.1635204327 -0.5650326374 -1.6359682981
| 24> H -2.7047773416 0.1260294798 -1.0629066728
| 25> H 0.3398315814 -2.5818927922 -0.8541753853
| 26> H 1.6264957482 1.0087260703 1.8137369912
| 27> H 0.1677529487 1.9737816193 -2.2743838637
| 28> H -1.0636824504 1.8977246322 2.1890279767
| 29> H -3.0152396196 -1.9536380202 -0.0162233974
| 30> *
| 31>
| 32>                          ****END OF INPUT****

CARTESIAN COORDINATES (ANGSTROEM)
---------------------------------
  C     -1.890123   -0.569741   -0.822380
  C     -1.220078   -0.102211    0.482674
  H     -1.967157   -0.111896    1.287687
  C     -0.638347    1.315010    0.358388
  H     -1.386490    1.955143   -0.132278
  C      0.652284    1.329713   -0.489147
  H      1.143409    2.297003   -0.310838
  C      1.634924    0.258846    0.019439
  H      2.402502    0.103143   -0.745367
  C      0.959834   -1.108315    0.253379
  H      1.613295   -1.684256    0.932325
  O     -0.246622   -1.024512    0.963726
  O      0.832587   -1.754508   -0.973176
  O      2.293849    0.693055    1.179666
  O      0.400778    1.133285   -1.855388
  O     -0.284103    1.842581    1.617182
  O     -2.367539   -1.888456   -0.732647
  H     -1.163520   -0.565033   -1.635968
  H     -2.704777    0.126029   -1.062907
  H      0.339832   -2.581893   -0.854175
  H      1.626496    1.008726    1.813737
  H      0.167753    1.973782   -2.274384
  H     -1.063682    1.897725    2.189028
  H     -3.015240   -1.953638   -0.016223

 Total Charge           Charge          ....    0
 Multiplicity           Mult            ....    1
 Number of Electrons    NEL             ....   96
 Basis Dimension        Dim             ....  192

ORBITAL ENERGIES
----------------

  NO   OCC          E(Eh)            E(eV)
   0   2.0000     -18.776147      -510.9249
   1   2.0000     -18.761639      -510.5302
   2   2.0000     -18.760624      -510.5025
   3   2.0000     -18.747279      -510.1394
   4   2.0000     -18.745362      -510.0872
   5   2.0000     -18.733967      -509.7772
   6   2.0000      -9.970360      -271.3073
   7   2.0000      -9.954280      -270.8697
   8   2.0000      -9.947429      -270.6833
   9   2.0000      -9.946821      -270.6668
  10   2.0000      -9.929629      -270.1989
  11   2.0000      -9.925095      -270.0756
  12   2.0000      -0.974160       -26.5083
  13   2.0000      -0.950195       -25.8561
  14   2.0000      -0.937358       -25.5068
  15   2.0000      -0.922631       -25.1061
  16   2.0000      -0.911143       -24.7935
  17   2.0000      -0.898616       -24.4526
  18   2.0000      -0.707603       -19.2549
  19   2.0000      -0.680698       -18.5227
  20   2.0000      -0.618235       -16.8230
  21   2.0000      -0.584870       -15.9151
  22   2.0000      -0.572167       -15.5695
  23   2.0000      -0.519037       -14.1237
  24   2.0000      -0.501480       -13.6460
  25   2.0000      -0.479491       -13.0476
  26   2.0000      -0.465926       -12.6785
  27   2.0000      -0.459734       -12.5100
  28   2.0000      -0.444937       -12.1074
  29   2.0000      -0.424718       -11.5572
  30   2.0000      -0.415970       -11.3191
  31   2.0000      -0.402505       -10.9527
  32   2.0000      -0.383269       -10.4293
  33   2.0000      -0.371237       -10.1019
  34   2.0000      -0.359823        -9.7913
  35   2.0000      -0.346120        -9.4184
  36   2.0000      -0.325661        -8.8617
  37   2.0000      -0.324412        -8.8277
  38   2.0000      -0.307005        -8.3540
  39   2.0000      -0.282998        -7.7008
  40   2.0000      -0.272637        -7.4188
  41   2.0000      -0.263672        -7.1749
  42   2.0000      -0.243258        -6.6194
  43   2.0000      -0.241847        -6.5810
  44   2.0000      -0.227180        -6.1819
  45   2.0000      -0.221131        -6.0173
  46   2.0000      -0.209321        -5.6959
  47   2.0000      -0.200777        -5.4634
  48   0.0000       0.003464         0.0943
  49   0.0000       0.009354         0.2545
  50   0.0000       0.026948         0.7333
  51   0.0000       0.055354         1.5062
  52   0.0000       0.067216         1.8290

MULLIKEN ATOMIC CHARGES
-----------------------
   0 C :    0.014285
   1 C :    0.013578
   2 H :    0.038974
   3 C :    0.050452
   4 H :    0.051049
   5 C :    0.007530
   6 H :    0.081507
   7 C :    0.079410
   8 H :    0.085836
   9 C :    0.184112
  10 H :    0.062541
  11 O :   -0.311071
  12 O :   -0.394308
  13 O :   -0.431724
  14 O :   -0.388853
  15 O :   -0.420459
  16 O :   -0.430042
  17 H :    0.136728
  18 H :    0.058877
  19 H :    0.304303
  20 H :    0.301115
  21 H :    0.305882
  22 H :    0.308628
  23 H :    0.291651
Sum of atomic charges:    0.0000000

LOEWDIN ATOMIC CHARGES
----------------------
   0 C :   -0.157226
   1 C :   -0.075129
   2 H :    0.099677
   3 C :   -0.077885
   4 H :    0.097926
   5 C :   -0.071357
   6 H :    0.110277
   7 C :   -0.069544
   8 H :    0.126485
   9 C :   -0.007772
  10 H :    0.096561
  11 O :   -0.146580
  12 O :   -0.307220
  13 O :   -0.317384
  14 O :   -0.298817
  15 O :   -0.310091
  16 O :   -0.332610
  17 H :    0.127911
  18 H :    0.092357
  19 H :    0.286102
  20 H :    0.272911
  21 H :    0.291017
  22 H :    0.290253
  23 H :    0.280139

  Mayer bond orders larger than 0.100000
B(  0-C ,  1-C ) :   1.0355 B(  0-C , 16-O ) :   1.0517 B(  0-C , 17-H ) :   0.8830
B(  0-C , 18-H ) :   0.9091 B(  1-C ,  2-H ) :   0.8922 B(  1-C ,  3-C ) :   0.9866
B(  1-C , 11-O ) :   1.0323 B(  3-C ,  4-H ) :   0.8941 B(  3-C ,  5-C ) :   0.9660
B(  3-C , 15-O ) :   1.0152 B(  5-C ,  6-H ) :   0.9048 B(  5-C ,  7-C ) :   0.9940
B(  5-C , 14-O ) :   1.0905 B(  7-C ,  8-H ) :   0.8826 B(  7-C ,  9-C ) :   0.9874
B(  7-C , 13-O ) :   1.0576 B(  9-C , 10-H ) :   0.9019 B(  9-C , 11-O ) :   1.0446
B(  9-C , 12-O ) :   1.1259 B( 12-O , 19-H ) :   0.8282 B( 13-O , 20-H ) :   0.8186
B( 14-O , 21-H ) :   0.8443 B( 15-O , 22-H ) :   0.8412 B( 16-O , 23-H ) :   0.8536

Dispersion correction           -0.025969374
FINAL SINGLE POINT ENERGY      -685.691082916034

DIPOLE MOMENT
-------------

Method             : SCF
Type of density    : Electron Density
Multiplicity       :   1
Irrep              :   0
Energy             :  -685.8217683789816874 Eh
Relativity type    :
Basis              : AO
                                X                 Y                 Z
Electronic contribution:      2.162359409      -1.369337533       1.175189698
Nuclear contribution   :     -3.750473714       2.297641627      -0.756368000
                        -----------------------------------------
Total Dipole Moment    :     -1.588114306       0.928304093       0.418821698
                        -----------------------------------------
Magnitude (a.u.)       :      1.886602012
Magnitude (Debye)      :      4.795361221

Rotational constants in cm-1:             0.041861             0.028182             0.025191
Rotational constants in MHz :          1254.972049           844.864368           755.207851

                             ****ORCA TERMINATED NORMALLY****
TOTAL RUN TIME: 0 days 0 hours 0 minutes 12 seconds 287 msec
