                         Program Version 6.0.0  -   RELEASE  -
|  1> ! wb97x-v def2-tzvp def2/J RIJCOSX DEFGRID2 scfconv7 GCP(DFT/TZ) printgap
|  2> %output
|  3>     printlevel normal
|  4> end
|  5> * xyz 0 1
|  6> C 2.1624725274085415 -0.005257635126525494 0.02510894328337892
|  7> C 0.8720354093499594 -0.7020969736678855 0.4484869045646549
|  8> C -0.42443096155057053 0.0010221750866898872 0.033397033268733535
|  9> C -0.48350017670870693 1.4483038252384566 0.5144663076829045
| 10> C -1.6290709438173192 -0.7824552207628129 0.5492018948689666
| 11> O -0.43845453269961177 -0.01922132641564128 -1.4239963140558554
| 12> H 2.288816761566068 0.9570874635516554 0.5302477727918524
| 13> H 2.188766084209468 0.1720794855436087 -1.0544765428840177
| 14> H 3.027482912511972 -0.6255999172765486 0.2803144514870609
| 15> H 0.8532861448395871 -0.8134533037676865 1.5388363531867442
| 16> H 0.845037938721516 -1.7152629906024421 0.02808131593996648
| 17> H -1.44400559044911 1.8977640289718278 0.23866887933896808
| 18> H -0.3846969516381137 1.4982139671048498 1.603979564349375
| 19> H 0.31552753704427017 2.0451174333865376 0.06611896989620063
| 20> H -1.653146868785551 -0.7776426558177965 1.643820704178407
| 21> H -2.560715642418677 -0.33371918799917316 0.18659030779386282
| 22> H -1.586279732305731 -1.8217916063765869 0.207695632043464
| 23> H -1.2544685435648983 0.4172227088273036 -1.7031170541011518
| 24> *
| 25>
| 26>                          ****END OF INPUT****

CARTESIAN COORDINATES (ANGSTROEM)
---------------------------------
  C      2.162473   -0.005258    0.025109
  C      0.872035   -0.702097    0.448487
  C     -0.424431    0.001022    0.033397
  C     -0.483500    1.448304    0.514466
  C     -1.629071   -0.782455    0.549202
  O     -0.438455   -0.019221   -1.423996
  H      2.288817    0.957087    0.530248
  H      2.188766    0.172079   -1.054477
  H      3.027483   -0.625600    0.280314
  H      0.853286   -0.813453    1.538836
  H      0.845038   -1.715263    0.028081
  H     -1.444006    1.897764    0.238669
  H     -0.384697    1.498214    1.603980
  H      0.315528    2.045117    0.066119
  H     -1.653147   -0.777643    1.643821
  H     -2.560716   -0.333719    0.186590
  H     -1.586280   -1.821792    0.207696
  H     -1.254469    0.417223   -1.703117

 Total Charge           Charge          ....    0
 Multiplicity           Mult            ....    1
 Number of Electrons    NEL             ....   50
 Basis Dimension        Dim             ....  258

ORBITAL ENERGIES
----------------

  NO   OCC          E(Eh)            E(eV)
   0   2.0000     -21.662647      -589.4706
   1   2.0000     -12.102034      -329.3131
   2   2.0000     -12.038424      -327.5822
   3   2.0000     -12.036270      -327.5236
   4   2.0000     -12.035829      -327.5115
   5   2.0000     -12.027362      -327.2812
   6   2.0000      -1.661142       -45.2020
   7   2.0000      -1.319909       -35.9166
   8   2.0000      -1.236121       -33.6366
   9   2.0000      -1.187088       -32.3023
  10   2.0000      -1.128191       -30.6996
  11   2.0000      -1.073096       -29.2004
  12   2.0000      -0.991971       -26.9929
  13   2.0000      -0.936734       -25.4898
  14   2.0000      -0.923210       -25.1218
  15   2.0000      -0.875004       -23.8101
  16   2.0000      -0.859542       -23.3893
  17   2.0000      -0.843730       -22.9591
  18   2.0000      -0.820662       -22.3313
  19   2.0000      -0.812815       -22.1178
  20   2.0000      -0.810842       -22.0641
  21   2.0000      -0.799258       -21.7489
  22   2.0000      -0.778131       -21.1740
  23   2.0000      -0.765441       -20.8287
  24   2.0000      -0.757373       -20.6092
  25   0.0000      -0.147461        -4.0126
  26   0.0000      -0.057263        -1.5582
  27   0.0000      -0.030282        -0.8240
  28   0.0000      -0.015018        -0.4087
  29   0.0000      -0.009674        -0.2632

MULLIKEN ATOMIC CHARGES
-----------------------
   0 C :   -0.378481
   1 C :   -0.141449
   2 C :    0.208050
   3 C :   -0.402195
   4 C :   -0.349014
   5 O :   -0.451972
   6 H :    0.107465
   7 H :    0.133101
   8 H :    0.113485
   9 H :    0.088772
  10 H :    0.096700
  11 H :    0.105302
  12 H :    0.109346
  13 H :    0.137360
  14 H :    0.106561
  15 H :    0.100992
  16 H :    0.123027
  17 H :    0.292948
Sum of atomic charges:    0.0000000

LOEWDIN ATOMIC CHARGES
----------------------
   0 C :   -0.304085
   1 C :   -0.249087
   2 C :   -0.424005
   3 C :   -0.266927
   4 C :   -0.267095
   5 O :   -0.015810
   6 H :    0.113856
   7 H :    0.122812
   8 H :    0.116505
   9 H :    0.137610
  10 H :    0.140254
  11 H :    0.118169
  12 H :    0.124702
  13 H :    0.124048
  14 H :    0.122874
  15 H :    0.116737
  16 H :    0.123900
  17 H :    0.165543

  Mayer bond orders larger than 0.100000
B(  0-C ,  1-C ) :   0.9805 B(  0-C ,  6-H ) :   0.9827 B(  0-C ,  7-H ) :   0.9785
B(  0-C ,  8-H ) :   0.9824 B(  1-C ,  2-C ) :   0.9509 B(  1-C ,  9-H ) :   0.9700
B(  1-C , 10-H ) :   0.9735 B(  2-C ,  3-C ) :   0.9741 B(  2-C ,  4-C ) :   0.9833
B(  2-C ,  5-O ) :   0.9831 B(  3-C , 11-H ) :   0.9694 B(  3-C , 12-H ) :   0.9720
B(  3-C , 13-H ) :   0.9887 B(  4-C , 14-H ) :   0.9721 B(  4-C , 15-H ) :   0.9703
B(  4-C , 16-H ) :   0.9843 B(  5-O , 17-H ) :   0.9043

FINAL SINGLE POINT ENERGY      -273.000486943833

DIPOLE MOMENT
-------------

Method             : SCF
Type of density    : Electron Density
Multiplicity       :   1
Irrep              :   0
Energy             :  -273.0135711222326336 Eh
Relativity type    :
Basis              : AO
                                X                 Y                 Z
Electronic contribution:     -1.048232301      -0.607491958      -2.952450260
Nuclear contribution   :      0.640798851       0.829581613       3.366370515
                        -----------------------------------------
Total Dipole Moment    :     -0.407433450       0.222089654       0.413920255
                        -----------------------------------------
Magnitude (a.u.)       :      0.621816539
Magnitude (Debye)      :      1.580532035

Rotational constants in cm-1:             0.150867             0.086101             0.084425
Rotational constants in MHz :          4522.888643          2581.243826          2531.008899

                             ****ORCA TERMINATED NORMALLY****
TOTAL RUN TIME: 0 days 0 hours 1 minutes 44 seconds 899 msec
