                         Program Version 6.0.0  -   RELEASE  -
|  1> ! pbe def2-sv(p) def2/J RI DEFGRID1 loosescf d4 GCP(DFT/SV(P)) printgap
|  2> %output
|  3>     printlevel normal
|  4> end
|  5> * xyz 0 1
|  6> C -2.2728871325 -0.6825657368 -0.78961295
|  7> C -1.1102382783 -0.5661624061 0.2082545725
|  8> H -1.4010960848 -0.9931337184 1.1847975729
|  9> C -0.7175274471 0.9100852085 0.4368448051
| 10> H -1.5617509367 1.5381693426 0.1324570384
| 11> C 0.4954804686 1.264557489 -0.437520467
| 12> H 0.7837775503 2.3044019839 -0.2146057406
| 13> C 1.6867035814 0.3706002122 -0.0284047845
| 14> H 2.403453642 0.2977636815 -0.8531093878
| 15> C 1.1997337254 -1.0645621886 0.2796385805
| 16> H 1.1012363116 -1.1707168492 1.3818354922
| 17> O -0.0470299181 -1.337968761 -0.3194501298
| 18> O 2.1185409931 -1.963355397 -0.2251852351
| 19> O 2.3921164012 0.9271208706 1.0471272213
| 20> O 0.1177473768 1.1298550952 -1.7799226572
| 21> O -0.3516328314 1.1578838867 1.777832976
| 22> O -3.4570328068 -0.1104441929 -0.2993147527
| 23> H -2.4026643507 -1.738097093 -1.0477449554
| 24> H -2.0015939459 -0.1325500668 -1.6925467682
| 25> H 1.7331001383 -2.8540654846 -0.2284165235
| 26> H 1.7644100241 1.1068897478 1.7674155035
| 27> H 0.8675128153 1.3418704901 -2.3540368661
| 28> H -1.1368709953 1.353741113 2.3072928318
| 29> H -3.8504336397 -0.6926942048 0.3667001152
| 30> *
| 31>
| 32>                          ****END OF INPUT****

CARTESIAN COORDINATES (ANGSTROEM)
---------------------------------
  C     -2.272887   -0.682566   -0.789613
  C     -1.110238   -0.566162    0.208255
  H     -1.401096   -0.993134    1.184798
  C     -0.717527    0.910085    0.436845
  H     -1.561751    1.538169    0.132457
  C      0.495480    1.264557   -0.437520
  H      0.783778    2.304402   -0.214606
  C      1.686704    0.370600   -0.028405
  H      2.403454    0.297764   -0.853109
  C      1.199734   -1.064562    0.279639
  H      1.101236   -1.170717    1.381835
  O     -0.047030   -1.337969   -0.319450
  O      2.118541   -1.963355   -0.225185
  O      2.392116    0.927121    1.047127
  O      0.117747    1.129855   -1.779923
  O     -0.351633    1.157884    1.777833
  O     -3.457033   -0.110444   -0.299315
  H     -2.402664   -1.738097   -1.047745
  H     -2.001594   -0.132550   -1.692547
  H      1.733100   -2.854065   -0.228417
  H      1.764410    1.106890    1.767416
  H      0.867513    1.341870   -2.354037
  H     -1.136871    1.353741    2.307293
  H     -3.850434   -0.692694    0.366700

 Total Charge           Charge          ....    0
 Multiplicity           Mult            ....    1
 Number of Electrons    NEL             ....   96
 Basis Dimension        Dim             ....  192

ORBITAL ENERGIES
----------------

  NO   OCC          E(Eh)            E(eV)
   0   2.0000     -18.774880      -510.8904
   1   2.0000     -18.763499      -510.5808
   2   2.0000     -18.756524      -510.3910
   3   2.0000     -18.756454      -510.3890
   4   2.0000     -18.750577      -510.2291
   5   2.0000     -18.733901      -509.7754
   6   2.0000      -9.976478      -271.4738
   7   2.0000      -9.948060      -270.7005
   8   2.0000      -9.942252      -270.5424
   9   2.0000      -9.941751      -270.5288
  10   2.0000      -9.929598      -270.1981
  11   2.0000      -9.928711      -270.1740
  12   2.0000      -0.977820       -26.6078
  13   2.0000      -0.949857       -25.8469
  14   2.0000      -0.932694       -25.3799
  15   2.0000      -0.931783       -25.3551
  16   2.0000      -0.913630       -24.8611
  17   2.0000      -0.905682       -24.6449
  18   2.0000      -0.700848       -19.0710
  19   2.0000      -0.681490       -18.5443
  20   2.0000      -0.617203       -16.7950
  21   2.0000      -0.578138       -15.7319
  22   2.0000      -0.564503       -15.3609
  23   2.0000      -0.520085       -14.1522
  24   2.0000      -0.503040       -13.6884
  25   2.0000      -0.488574       -13.2948
  26   2.0000      -0.473289       -12.8788
  27   2.0000      -0.459483       -12.5032
  28   2.0000      -0.450503       -12.2588
  29   2.0000      -0.444991       -12.1088
  30   2.0000      -0.402840       -10.9618
  31   2.0000      -0.389997       -10.6124
  32   2.0000      -0.388092       -10.5605
  33   2.0000      -0.365937        -9.9576
  34   2.0000      -0.355043        -9.6612
  35   2.0000      -0.352017        -9.5789
  36   2.0000      -0.320988        -8.7345
  37   2.0000      -0.312228        -8.4962
  38   2.0000      -0.308970        -8.4075
  39   2.0000      -0.297690        -8.1006
  40   2.0000      -0.279444        -7.6041
  41   2.0000      -0.262565        -7.1448
  42   2.0000      -0.252892        -6.8815
  43   2.0000      -0.236623        -6.4388
  44   2.0000      -0.232414        -6.3243
  45   2.0000      -0.219437        -5.9712
  46   2.0000      -0.218283        -5.9398
  47   2.0000      -0.190331        -5.1792
  48   0.0000       0.004737         0.1289
  49   0.0000       0.018492         0.5032
  50   0.0000       0.029555         0.8042
  51   0.0000       0.041156         1.1199
  52   0.0000       0.061859         1.6833

MULLIKEN ATOMIC CHARGES
-----------------------
   0 C :    0.048101
   1 C :    0.072375
   2 H :    0.030347
   3 C :   -0.043325
   4 H :    0.093230
   5 C :    0.062285
   6 H :    0.069568
   7 C :    0.050704
   8 H :    0.061430
   9 C :    0.207972
  10 H :    0.028471
  11 O :   -0.312493
  12 O :   -0.382463
  13 O :   -0.428671
  14 O :   -0.404966
  15 O :   -0.427306
  16 O :   -0.434788
  17 H :    0.081992
  18 H :    0.105749
  19 H :    0.299870
  20 H :    0.303286
  21 H :    0.307493
  22 H :    0.315196
  23 H :    0.295945
Sum of atomic charges:    0.0000000

LOEWDIN ATOMIC CHARGES
----------------------
   0 C :   -0.132436
   1 C :   -0.071398
   2 H :    0.088545
   3 C :   -0.072939
   4 H :    0.117862
   5 C :   -0.073349
   6 H :    0.103248
   7 C :   -0.083920
   8 H :    0.116323
   9 C :    0.003209
  10 H :    0.075319
  11 O :   -0.156447
  12 O :   -0.295783
  13 O :   -0.314667
  14 O :   -0.309830
  15 O :   -0.316947
  16 O :   -0.331429
  17 H :    0.101600
  18 H :    0.124579
  19 H :    0.285194
  20 H :    0.273455
  21 H :    0.290410
  22 H :    0.295694
  23 H :    0.283705

  Mayer bond orders larger than 0.100000
B(  0-C ,  1-C ) :   1.0264 B(  0-C , 16-O ) :   1.0504 B(  0-C , 17-H ) :   0.9177
B(  0-C , 18-H ) :   0.9052 B(  1-C ,  2-H ) :   0.8903 B(  1-C ,  3-C ) :   0.9565
B(  1-C , 11-O ) :   0.9931 B(  3-C ,  4-H ) :   0.8948 B(  3-C ,  5-C ) :   1.0311
B(  3-C , 15-O ) :   1.0386 B(  5-C ,  6-H ) :   0.8972 B(  5-C ,  7-C ) :   0.9621
B(  5-C , 14-O ) :   1.0627 B(  7-C ,  8-H ) :   0.8813 B(  7-C ,  9-C ) :   0.9600
B(  7-C , 13-O ) :   1.0524 B(  9-C , 10-H ) :   0.8833 B(  9-C , 11-O ) :   1.0429
B(  9-C , 12-O ) :   1.1642 B( 12-O , 19-H ) :   0.8407 B( 13-O , 20-H ) :   0.8234
B( 14-O , 21-H ) :   0.8435 B( 15-O , 22-H ) :   0.8424 B( 16-O , 23-H ) :   0.8535

Dispersion correction           -0.024827713
FINAL SINGLE POINT ENERGY      -685.687440052391

DIPOLE MOMENT
-------------

Method             : SCF
Type of density    : Electron Density
Multiplicity       :   1
Irrep              :   0
Energy             :  -685.8175803707569003 Eh
Relativity type    :
Basis              : AO
                                X                 Y                 Z
Electronic contribution:      2.398496524      -0.571965729      -0.085674841
Nuclear contribution   :     -3.460644763       0.336305459       0.706642540
                        -----------------------------------------
Total Dipole Moment    :     -1.062148239      -0.235660270       0.620967699
                        -----------------------------------------
Magnitude (a.u.)       :      1.252715262
Magnitude (Debye)      :      3.184149147

Rotational constants in cm-1:             0.044529             0.024561             0.021480
Rotational constants in MHz :          1334.933936           736.307047           643.963760

                             ****ORCA TERMINATED NORMALLY****
TOTAL RUN TIME: 0 days 0 hours 0 minutes 12 seconds 105 msec
