                         Program Version 6.0.0  -   RELEASE  -
|  1> ! wb97x-v def2-tzvp def2/J RIJCOSX DEFGRID2 scfconv7 GCP(DFT/TZ) printgap
|  2> %output
|  3>     printlevel normal
|  4> end
|  5> * xyz 0 1
|  6> C 2.211131188192385 1.0296467936554028 -0.41885099461749686
|  7> C 1.190349483130083 -0.07499985495834904 -0.2610313317100236
|  8> C 1.5868793129217187 -1.1152232932018227 0.7670647067065267
|  9> O -0.05016392672195477 0.5900017901421724 0.18743138086406497
| 10> C -1.2174620123992632 -0.02225277227636997 -0.07566298255346358
| 11> O -1.3091616654592468 -1.073751042008813 -0.6912669920966186
| 12> C -2.386993537655435 0.7206883063252505 0.48857766333899066
| 13> H 2.3962317127251853 1.5275973942941774 0.538247261642168
| 14> H 3.1533396217685152 0.6005950205212095 -0.7719334593340276
| 15> H 1.876659086411531 1.7724834246443923 -1.1482747094119141
| 16> H 0.9775861000111556 -0.5440444641742946 -1.2258340744135336
| 17> H 1.7745820125367828 -0.6412158143097818 1.73592182480514
| 18> H 2.505864975235443 -1.6126539474663302 0.4424425502115802
| 19> H 0.8099732341210245 -1.8751382860038297 0.8867673598626642
| 20> H -3.2052794339947397 0.7072220862911518 -0.23448193576964363
| 21> H -2.133089089554441 1.7449360148568245 0.7616799828566118
| 22> H -2.7240896235996974 0.18705162859661079 1.3843199107483681
| 23> *
| 24>
| 25>                          ****END OF INPUT****

CARTESIAN COORDINATES (ANGSTROEM)
---------------------------------
  C      2.211131    1.029647   -0.418851
  C      1.190349   -0.075000   -0.261031
  C      1.586879   -1.115223    0.767065
  O     -0.050164    0.590002    0.187431
  C     -1.217462   -0.022253   -0.075663
  O     -1.309162   -1.073751   -0.691267
  C     -2.386994    0.720688    0.488578
  H      2.396232    1.527597    0.538247
  H      3.153340    0.600595   -0.771933
  H      1.876659    1.772483   -1.148275
  H      0.977586   -0.544044   -1.225834
  H      1.774582   -0.641216    1.735922
  H      2.505865   -1.612654    0.442443
  H      0.809973   -1.875138    0.886767
  H     -3.205279    0.707222   -0.234482
  H     -2.133089    1.744936    0.761680
  H     -2.724090    0.187052    1.384320

 Total Charge           Charge          ....    0
 Multiplicity           Mult            ....    1
 Number of Electrons    NEL             ....   56
 Basis Dimension        Dim             ....  277

ORBITAL ENERGIES
----------------

  NO   OCC          E(Eh)            E(eV)
   0   2.0000     -21.712494      -590.8270
   1   2.0000     -21.649667      -589.1174
   2   2.0000     -12.176001      -331.3258
   3   2.0000     -12.111927      -329.5823
   4   2.0000     -12.055111      -328.0363
   5   2.0000     -12.045201      -327.7666
   6   2.0000     -12.041939      -327.6778
   7   2.0000      -1.750454       -47.6323
   8   2.0000      -1.685108       -45.8541
   9   2.0000      -1.334755       -36.3205
  10   2.0000      -1.259989       -34.2860
  11   2.0000      -1.196411       -32.5560
  12   2.0000      -1.165298       -31.7094
  13   2.0000      -1.089635       -29.6505
  14   2.0000      -1.046962       -28.4893
  15   2.0000      -0.990666       -26.9574
  16   2.0000      -0.981044       -26.6956
  17   2.0000      -0.931836       -25.3565
  18   2.0000      -0.903057       -24.5734
  19   2.0000      -0.883620       -24.0445
  20   2.0000      -0.858059       -23.3490
  21   2.0000      -0.847787       -23.0695
  22   2.0000      -0.837510       -22.7898
  23   2.0000      -0.833993       -22.6941
  24   2.0000      -0.824912       -22.4470
  25   2.0000      -0.820228       -22.3195
  26   2.0000      -0.798587       -21.7307
  27   2.0000      -0.781052       -21.2535
  28   0.0000      -0.299803        -8.1580
  29   0.0000      -0.191710        -5.2167
  30   0.0000      -0.102353        -2.7852
  31   0.0000      -0.021623        -0.5884
  32   0.0000      -0.008890        -0.2419

MULLIKEN ATOMIC CHARGES
-----------------------
   0 C :   -0.314604
   1 C :    0.097706
   2 C :   -0.361763
   3 O :   -0.252533
   4 C :    0.329069
   5 O :   -0.373214
   6 C :   -0.338455
   7 H :    0.113085
   8 H :    0.111468
   9 H :    0.120410
  10 H :    0.102889
  11 H :    0.109939
  12 H :    0.112862
  13 H :    0.142836
  14 H :    0.138456
  15 H :    0.129631
  16 H :    0.132218
Sum of atomic charges:    0.0000000

LOEWDIN ATOMIC CHARGES
----------------------
   0 C :   -0.279106
   1 C :   -0.314923
   2 C :   -0.278986
   3 O :    0.257013
   4 C :   -0.493313
   5 O :    0.069233
   6 C :   -0.255838
   7 H :    0.122821
   8 H :    0.125904
   9 H :    0.122690
  10 H :    0.144601
  11 H :    0.122054
  12 H :    0.125908
  13 H :    0.127232
  14 H :    0.136601
  15 H :    0.127849
  16 H :    0.140261

  Mayer bond orders larger than 0.100000
B(  0-C ,  1-C ) :   0.9805 B(  0-C ,  7-H ) :   0.9721 B(  0-C ,  8-H ) :   0.9753
B(  0-C ,  9-H ) :   0.9787 B(  1-C ,  2-C ) :   0.9898 B(  1-C ,  3-O ) :   0.8542
B(  1-C , 10-H ) :   0.9726 B(  2-C , 11-H ) :   0.9711 B(  2-C , 12-H ) :   0.9737
B(  2-C , 13-H ) :   0.9755 B(  3-O ,  4-C ) :   1.2087 B(  4-C ,  5-O ) :   2.0118
B(  4-C ,  6-C ) :   0.9701 B(  6-C , 14-H ) :   0.9725 B(  6-C , 15-H ) :   0.9747
B(  6-C , 16-H ) :   0.9514

FINAL SINGLE POINT ENERGY      -347.045089566999

DIPOLE MOMENT
-------------

Method             : SCF
Type of density    : Electron Density
Multiplicity       :   1
Irrep              :   0
Energy             :  -347.0568420887989873 Eh
Relativity type    :
Basis              : AO
                                X                 Y                 Z
Electronic contribution:     -4.625705598      -1.106024984      -1.806025148
Nuclear contribution   :      5.043661204       1.688746236       2.184211207
                        -----------------------------------------
Total Dipole Moment    :      0.417955606       0.582721251       0.378186059
                        -----------------------------------------
Magnitude (a.u.)       :      0.810725379
Magnitude (Debye)      :      2.060700148

Rotational constants in cm-1:             0.159365             0.055438             0.048580
Rotational constants in MHz :          4777.643715          1661.988526          1456.397693

                             ****ORCA TERMINATED NORMALLY****
TOTAL RUN TIME: 0 days 0 hours 1 minutes 55 seconds 245 msec
