                         Program Version 6.0.0  -   RELEASE  -
|  1> ! wb97x-v def2-tzvp def2/J RIJCOSX DEFGRID2 scfconv7 GCP(DFT/TZ) printgap
|  2> %output
|  3>     printlevel normal
|  4> end
|  5> %cpcm
|  6>     smd true
|  7>     smdsolvent "water"
|  8> end
|  9> * xyz 0 1
| 10> C 2.211131188192385 1.0296467936554028 -0.41885099461749686
| 11> C 1.190349483130083 -0.07499985495834904 -0.2610313317100236
| 12> C 1.5868793129217187 -1.1152232932018227 0.7670647067065267
| 13> O -0.05016392672195477 0.5900017901421724 0.18743138086406497
| 14> C -1.2174620123992632 -0.02225277227636997 -0.07566298255346358
| 15> O -1.3091616654592468 -1.073751042008813 -0.6912669920966186
| 16> C -2.386993537655435 0.7206883063252505 0.48857766333899066
| 17> H 2.3962317127251853 1.5275973942941774 0.538247261642168
| 18> H 3.1533396217685152 0.6005950205212095 -0.7719334593340276
| 19> H 1.876659086411531 1.7724834246443923 -1.1482747094119141
| 20> H 0.9775861000111556 -0.5440444641742946 -1.2258340744135336
| 21> H 1.7745820125367828 -0.6412158143097818 1.73592182480514
| 22> H 2.505864975235443 -1.6126539474663302 0.4424425502115802
| 23> H 0.8099732341210245 -1.8751382860038297 0.8867673598626642
| 24> H -3.2052794339947397 0.7072220862911518 -0.23448193576964363
| 25> H -2.133089089554441 1.7449360148568245 0.7616799828566118
| 26> H -2.7240896235996974 0.18705162859661079 1.3843199107483681
| 27> *
| 28>
| 29>                          ****END OF INPUT****

CARTESIAN COORDINATES (ANGSTROEM)
---------------------------------
  C      2.211131    1.029647   -0.418851
  C      1.190349   -0.075000   -0.261031
  C      1.586879   -1.115223    0.767065
  O     -0.050164    0.590002    0.187431
  C     -1.217462   -0.022253   -0.075663
  O     -1.309162   -1.073751   -0.691267
  C     -2.386994    0.720688    0.488578
  H      2.396232    1.527597    0.538247
  H      3.153340    0.600595   -0.771933
  H      1.876659    1.772483   -1.148275
  H      0.977586   -0.544044   -1.225834
  H      1.774582   -0.641216    1.735922
  H      2.505865   -1.612654    0.442443
  H      0.809973   -1.875138    0.886767
  H     -3.205279    0.707222   -0.234482
  H     -2.133089    1.744936    0.761680
  H     -2.724090    0.187052    1.384320

 Total Charge           Charge          ....    0
 Multiplicity           Mult            ....    1
 Number of Electrons    NEL             ....   56
 Basis Dimension        Dim             ....  277

ORBITAL ENERGIES
----------------

  NO   OCC          E(Eh)            E(eV)
   0   2.0000     -21.718284      -590.9846
   1   2.0000     -21.664566      -589.5228
   2   2.0000     -12.186770      -331.6189
   3   2.0000     -12.105555      -329.4089
   4   2.0000     -12.045948      -327.7869
   5   2.0000     -12.032232      -327.4137
   6   2.0000     -12.031642      -327.3976
   7   2.0000      -1.759182       -47.8698
   8   2.0000      -1.698343       -46.2143
   9   2.0000      -1.330743       -36.2114
  10   2.0000      -1.255127       -34.1537
  11   2.0000      -1.187012       -32.3002
  12   2.0000      -1.162721       -31.6393
  13   2.0000      -1.101798       -29.9814
  14   2.0000      -1.053649       -28.6713
  15   2.0000      -0.993289       -27.0288
  16   2.0000      -0.981303       -26.7026
  17   2.0000      -0.937176       -25.5019
  18   2.0000      -0.914484       -24.8844
  19   2.0000      -0.878670       -23.9098
  20   2.0000      -0.861063       -23.4307
  21   2.0000      -0.841183       -22.8898
  22   2.0000      -0.832218       -22.6458
  23   2.0000      -0.826623       -22.4936
  24   2.0000      -0.815653       -22.1950
  25   2.0000      -0.808465       -21.9994
  26   2.0000      -0.788432       -21.4543
  27   2.0000      -0.771867       -21.0036
  28   0.0000      -0.305003        -8.2996
  29   0.0000      -0.187354        -5.0982
  30   0.0000      -0.106484        -2.8976
  31   0.0000      -0.013510        -0.3676
  32   0.0000      -0.004249        -0.1156

MULLIKEN ATOMIC CHARGES
-----------------------
   0 C :   -0.375197
   1 C :    0.115853
   2 C :   -0.396352
   3 O :   -0.280130
   4 C :    0.415677
   5 O :   -0.492402
   6 C :   -0.383921
   7 H :    0.131013
   8 H :    0.136905
   9 H :    0.136780
  10 H :    0.108758
  11 H :    0.129997
  12 H :    0.140549
  13 H :    0.138739
  14 H :    0.157901
  15 H :    0.150129
  16 H :    0.165701
Sum of atomic charges:    0.0000000

LOEWDIN ATOMIC CHARGES
----------------------
   0 C :   -0.281603
   1 C :   -0.312499
   2 C :   -0.281813
   3 O :    0.252734
   4 C :   -0.474974
   5 O :    0.006089
   6 C :   -0.251245
   7 H :    0.126186
   8 H :    0.133309
   9 H :    0.125348
  10 H :    0.145692
  11 H :    0.126870
  12 H :    0.133195
  13 H :    0.124617
  14 H :    0.142572
  15 H :    0.135069
  16 H :    0.150454

  Mayer bond orders larger than 0.100000
B(  0-C ,  1-C ) :   0.9836 B(  0-C ,  7-H ) :   0.9695 B(  0-C ,  8-H ) :   0.9708
B(  0-C ,  9-H ) :   0.9750 B(  1-C ,  2-C ) :   0.9858 B(  1-C ,  3-O ) :   0.8273
B(  1-C , 10-H ) :   0.9727 B(  2-C , 11-H ) :   0.9674 B(  2-C , 12-H ) :   0.9704
B(  2-C , 13-H ) :   0.9725 B(  3-O ,  4-C ) :   1.2266 B(  4-C ,  5-O ) :   1.8877
B(  4-C ,  6-C ) :   0.9809 B(  6-C , 14-H ) :   0.9609 B(  6-C , 15-H ) :   0.9707
B(  6-C , 16-H ) :   0.9408

FINAL SINGLE POINT ENERGY      -347.051059168093

DIPOLE MOMENT
-------------

Method             : SCF
Type of density    : Electron Density
Multiplicity       :   1
Irrep              :   0
Energy             :  -347.0628116898925555 Eh
Relativity type    :
Basis              : AO
                                X                 Y                 Z
Electronic contribution:     -4.471816638      -0.871162546      -1.654401510
Nuclear contribution   :      5.043661204       1.688746236       2.184211207
                        -----------------------------------------
Total Dipole Moment    :      0.571844566       0.817583690       0.529809697
                        -----------------------------------------
Magnitude (a.u.)       :      1.129667036
Magnitude (Debye)      :      2.871385414

Rotational constants in cm-1:             0.159365             0.055438             0.048580
Rotational constants in MHz :          4777.643715          1661.988526          1456.397693

                             ****ORCA TERMINATED NORMALLY****
TOTAL RUN TIME: 0 days 0 hours 1 minutes 58 seconds 211 msec
