                         Program Version 6.0.0  -   RELEASE  -
|  1> ! r2scan-3c def2/J RI DEFGRID2 scfconv6 printgap
|  2> %output
|  3>     printlevel normal
|  4> end
|  5> * xyz 0 1
|  6> C 1.8680852264 0.9259368673 -0.2736146131
|  7> C 0.9644302025 -0.0752186278 0.4352611018
|  8> C -0.3800830642 -0.2849022723 -0.2753289603
|  9> H -0.195965798 -0.5349349897 -1.326843193
| 10> C -1.2786988853 0.9481692654 -0.1951283975
| 11> O -1.0429832287 -1.4310349141 0.237998093
| 12> H 1.4324889676 1.9210968863 -0.2625545968
| 13> H 2.0272501704 0.6289856212 -1.30751617
| 14> H 2.8335145186 0.9713751461 0.2236729313
| 15> H 0.7791527997 0.2592093672 1.459085651
| 16> H 1.4663326232 -1.0444836099 0.4840962795
| 17> H -1.4095996736 1.2558377287 0.8403633534
| 18> H -0.8433616775 1.7697961673 -0.754260879
| 19> H -2.2528534936 0.7171788476 -0.6193198937
| 20> H -1.2676524895 -1.269550029 1.1652726733
| 21> *
| 22>
| 23>                          ****END OF INPUT****

CARTESIAN COORDINATES (ANGSTROEM)
---------------------------------
  C      1.868085    0.925937   -0.273615
  C      0.964430   -0.075219    0.435261
  C     -0.380083   -0.284902   -0.275329
  H     -0.195966   -0.534935   -1.326843
  C     -1.278699    0.948169   -0.195128
  O     -1.042983   -1.431035    0.237998
  H      1.432489    1.921097   -0.262555
  H      2.027250    0.628986   -1.307516
  H      2.833515    0.971375    0.223673
  H      0.779153    0.259209    1.459086
  H      1.466333   -1.044484    0.484096
  H     -1.409600    1.255838    0.840363
  H     -0.843362    1.769796   -0.754261
  H     -2.252853    0.717179   -0.619320
  H     -1.267652   -1.269550    1.165273

 Total Charge           Charge          ....    0
 Multiplicity           Mult            ....    1
 Number of Electrons    NEL             ....   42
 Basis Dimension        Dim             ....  150

ORBITAL ENERGIES
----------------

  NO   OCC          E(Eh)            E(eV)
   0   2.0000     -18.942044      -515.4392
   1   2.0000     -10.079173      -274.2683
   2   2.0000     -10.025843      -272.8171
   3   2.0000     -10.021511      -272.6992
   4   2.0000     -10.019400      -272.6417
   5   2.0000      -0.980471       -26.6800
   6   2.0000      -0.754753       -20.5379
   7   2.0000      -0.690036       -18.7768
   8   2.0000      -0.610523       -16.6132
   9   2.0000      -0.556094       -15.1321
  10   2.0000      -0.454959       -12.3801
  11   2.0000      -0.436924       -11.8893
  12   2.0000      -0.403575       -10.9818
  13   2.0000      -0.398921       -10.8552
  14   2.0000      -0.362080        -9.8527
  15   2.0000      -0.353899        -9.6301
  16   2.0000      -0.337091        -9.1727
  17   2.0000      -0.320040        -8.7087
  18   2.0000      -0.305896        -8.3238
  19   2.0000      -0.283064        -7.7026
  20   2.0000      -0.231446        -6.2980
  21   0.0000       0.067682         1.8417
  22   0.0000       0.091773         2.4973
  23   0.0000       0.121823         3.3150
  24   0.0000       0.129113         3.5133
  25   0.0000       0.134706         3.6655

MULLIKEN ATOMIC CHARGES
-----------------------
   0 C :   -0.497196
   1 C :   -0.206595
   2 C :    0.013297
   3 H :    0.133595
   4 C :   -0.496738
   5 O :   -0.408271
   6 H :    0.147213
   7 H :    0.146975
   8 H :    0.147579
   9 H :    0.121952
  10 H :    0.157754
  11 H :    0.140303
  12 H :    0.148693
  13 H :    0.163283
  14 H :    0.288156
Sum of atomic charges:   -0.0000000

LOEWDIN ATOMIC CHARGES
----------------------
   0 C :   -0.420643
   1 C :   -0.297341
   2 C :    0.039871
   3 H :    0.178625
   4 C :   -0.401772
   5 O :   -0.610008
   6 H :    0.149563
   7 H :    0.152100
   8 H :    0.152803
   9 H :    0.152239
  10 H :    0.164385
  11 H :    0.152842
  12 H :    0.157688
  13 H :    0.163314
  14 H :    0.266334

  Mayer bond orders larger than 0.100000
B(  0-C ,  1-C ) :   0.8909 B(  0-C ,  6-H ) :   0.9813 B(  0-C ,  7-H ) :   0.9829
B(  0-C ,  8-H ) :   0.9653 B(  1-C ,  2-C ) :   0.9215 B(  1-C ,  9-H ) :   0.9604
B(  1-C , 10-H ) :   0.9672 B(  2-C ,  3-H ) :   0.9581 B(  2-C ,  4-C ) :   0.9344
B(  2-C ,  5-O ) :   0.9390 B(  4-C , 11-H ) :   0.9757 B(  4-C , 12-H ) :   0.9693
B(  4-C , 13-H ) :   0.9678 B(  5-O , 14-H ) :   0.8974

Dispersion correction           -0.003196533
FINAL SINGLE POINT ENERGY      -233.603542559684

DIPOLE MOMENT
-------------

Method             : SCF
Type of density    : Electron Density
Multiplicity       :   1
Irrep              :   0
Energy             :  -233.6085744706013827 Eh
Relativity type    :
Basis              : AO
                                X                 Y                 Z
Electronic contribution:     -2.223516380      -3.831844712       0.380912179
Nuclear contribution   :      2.394925124       4.364192848      -0.088401779
                        -----------------------------------------
Total Dipole Moment    :      0.171408743       0.532348136       0.292510401
                        -----------------------------------------
Magnitude (a.u.)       :      0.631140103
Magnitude (Debye)      :      1.604230651

Rotational constants in cm-1:             0.254934             0.115205             0.088702
Rotational constants in MHz :          7642.741150          3453.757215          2659.217494

                             ****ORCA TERMINATED NORMALLY****
TOTAL RUN TIME: 0 days 0 hours 0 minutes 15 seconds 468 msec
