                         Program Version 6.0.0  -   RELEASE  -
|  1> ! r2scan-3c def2/J RI DEFGRID2 scfconv6 printgap
|  2> %output
|  3>     printlevel normal
|  4> end
|  5> %cpcm
|  6>     smd true
|  7>     smdsolvent "water"
|  8> end
|  9> * xyz 0 1
| 10> C 1.8680852264 0.9259368673 -0.2736146131
| 11> C 0.9644302025 -0.0752186278 0.4352611018
| 12> C -0.3800830642 -0.2849022723 -0.2753289603
| 13> H -0.195965798 -0.5349349897 -1.326843193
| 14> C -1.2786988853 0.9481692654 -0.1951283975
| 15> O -1.0429832287 -1.4310349141 0.237998093
| 16> H 1.4324889676 1.9210968863 -0.2625545968
| 17> H 2.0272501704 0.6289856212 -1.30751617
| 18> H 2.8335145186 0.9713751461 0.2236729313
| 19> H 0.7791527997 0.2592093672 1.459085651
| 20> H 1.4663326232 -1.0444836099 0.4840962795
| 21> H -1.4095996736 1.2558377287 0.8403633534
| 22> H -0.8433616775 1.7697961673 -0.754260879
| 23> H -2.2528534936 0.7171788476 -0.6193198937
| 24> H -1.2676524895 -1.269550029 1.1652726733
| 25> *
| 26>
| 27>                          ****END OF INPUT****

CARTESIAN COORDINATES (ANGSTROEM)
---------------------------------
  C      1.868085    0.925937   -0.273615
  C      0.964430   -0.075219    0.435261
  C     -0.380083   -0.284902   -0.275329
  H     -0.195966   -0.534935   -1.326843
  C     -1.278699    0.948169   -0.195128
  O     -1.042983   -1.431035    0.237998
  H      1.432489    1.921097   -0.262555
  H      2.027250    0.628986   -1.307516
  H      2.833515    0.971375    0.223673
  H      0.779153    0.259209    1.459086
  H      1.466333   -1.044484    0.484096
  H     -1.409600    1.255838    0.840363
  H     -0.843362    1.769796   -0.754261
  H     -2.252853    0.717179   -0.619320
  H     -1.267652   -1.269550    1.165273

 Total Charge           Charge          ....    0
 Multiplicity           Mult            ....    1
 Number of Electrons    NEL             ....   42
 Basis Dimension        Dim             ....  150

ORBITAL ENERGIES
----------------

  NO   OCC          E(Eh)            E(eV)
   0   2.0000     -18.946976      -515.5734
   1   2.0000     -10.073943      -274.1259
   2   2.0000     -10.016708      -272.5685
   3   2.0000     -10.010264      -272.3931
   4   2.0000     -10.009031      -272.3596
   5   2.0000      -0.984038       -26.7770
   6   2.0000      -0.746387       -20.3102
   7   2.0000      -0.681037       -18.5320
   8   2.0000      -0.602676       -16.3996
   9   2.0000      -0.549920       -14.9641
  10   2.0000      -0.449756       -12.2385
  11   2.0000      -0.430558       -11.7161
  12   2.0000      -0.396267       -10.7830
  13   2.0000      -0.393080       -10.6962
  14   2.0000      -0.353728        -9.6254
  15   2.0000      -0.346016        -9.4156
  16   2.0000      -0.328393        -8.9360
  17   2.0000      -0.313814        -8.5393
  18   2.0000      -0.298277        -8.1165
  19   2.0000      -0.280545        -7.6340
  20   2.0000      -0.236239        -6.4284
  21   0.0000       0.082456         2.2437
  22   0.0000       0.102830         2.7981
  23   0.0000       0.131848         3.5878
  24   0.0000       0.137933         3.7533
  25   0.0000       0.144170         3.9231

MULLIKEN ATOMIC CHARGES
-----------------------
   0 C :   -0.532268
   1 C :   -0.223378
   2 C :    0.039130
   3 H :    0.144779
   4 C :   -0.536059
   5 O :   -0.503842
   6 H :    0.160888
   7 H :    0.157504
   8 H :    0.157839
   9 H :    0.145616
  10 H :    0.151822
  11 H :    0.163906
  12 H :    0.166719
  13 H :    0.161364
  14 H :    0.345981
Sum of atomic charges:    0.0000000

LOEWDIN ATOMIC CHARGES
----------------------
   0 C :   -0.426525
   1 C :   -0.296796
   2 C :    0.040046
   3 H :    0.181644
   4 C :   -0.405485
   5 O :   -0.650258
   6 H :    0.153954
   7 H :    0.154789
   8 H :    0.155216
   9 H :    0.159729
  10 H :    0.162120
  11 H :    0.160802
  12 H :    0.164057
  13 H :    0.161786
  14 H :    0.284920

  Mayer bond orders larger than 0.100000
B(  0-C ,  1-C ) :   0.8893 B(  0-C ,  6-H ) :   0.9776 B(  0-C ,  7-H ) :   0.9798
B(  0-C ,  8-H ) :   0.9632 B(  1-C ,  2-C ) :   0.9169 B(  1-C ,  9-H ) :   0.9638
B(  1-C , 10-H ) :   0.9652 B(  2-C ,  3-H ) :   0.9593 B(  2-C ,  4-C ) :   0.9278
B(  2-C ,  5-O ) :   0.9227 B(  4-C , 11-H ) :   0.9735 B(  4-C , 12-H ) :   0.9644
B(  4-C , 13-H ) :   0.9652 B(  5-O , 14-H ) :   0.8696

Dispersion correction           -0.003196533
FINAL SINGLE POINT ENERGY      -233.610241567521

DIPOLE MOMENT
-------------

Method             : SCF
Type of density    : Electron Density
Multiplicity       :   1
Irrep              :   0
Energy             :  -233.6152734784381835 Eh
Relativity type    :
Basis              : AO
                                X                 Y                 Z
Electronic contribution:     -2.171932192      -3.595363002       0.527017452
Nuclear contribution   :      2.394925124       4.364192848      -0.088401779
                        -----------------------------------------
Total Dipole Moment    :      0.222992932       0.768829846       0.438615674
                        -----------------------------------------
Magnitude (a.u.)       :      0.912802766
Magnitude (Debye)      :      2.320160244

Rotational constants in cm-1:             0.254934             0.115205             0.088702
Rotational constants in MHz :          7642.741150          3453.757215          2659.217494

                             ****ORCA TERMINATED NORMALLY****
TOTAL RUN TIME: 0 days 0 hours 0 minutes 17 seconds 186 msec
