                         Program Version 6.0.0  -   RELEASE  -
|  1> ! wb97x-v def2-tzvp def2/J RIJCOSX DEFGRID2 scfconv7 GCP(DFT/TZ) printgap
|  2> %output
|  3>     printlevel normal
|  4> end
|  5> * xyz 0 1
|  6> C -2.9059530180320774 -0.057625587059361515 0.001975940206925678
|  7> O -1.652626920244245 0.6824093691148095 0.0010480262995571296
|  8> C -0.5386348649220997 -0.06316455470909123 -0.0013464417500464842
|  9> O -0.5187785992246091 -1.2746869857838221 -0.0021492478253620027
| 10> C 0.6549463819119382 0.8648920062017125 -0.0037025183333351456
| 11> Cl 2.2160666450373716 -0.030949122808137403 0.001807531330913077
| 12> H -3.6851452829468645 0.7029128655683938 0.0035326509264789114
| 13> H -2.970953333876619 -0.6774075713079395 0.8986161223826169
| 14> H -2.9731679814118355 -0.6760310889648118 -0.8954494388982891
| 15> H 0.62186823869678 1.5038122525472903 0.8818730295795395
| 16> H 0.6237976032071726 1.4959905248540941 -0.8950055477193614
| 17> *
| 18>
| 19>                          ****END OF INPUT****

CARTESIAN COORDINATES (ANGSTROEM)
---------------------------------
  C     -2.905953   -0.057626    0.001976
  O     -1.652627    0.682409    0.001048
  C     -0.538635   -0.063165   -0.001346
  O     -0.518779   -1.274687   -0.002149
  C      0.654946    0.864892   -0.003703
  Cl     2.216067   -0.030949    0.001808
  H     -3.685145    0.702913    0.003533
  H     -2.970953   -0.677408    0.898616
  H     -2.973168   -0.676031   -0.895449
  H      0.621868    1.503812    0.881873
  H      0.623798    1.495991   -0.895006

 Total Charge           Charge          ....    0
 Multiplicity           Mult            ....    1
 Number of Electrons    NEL             ....   56
 Basis Dimension        Dim             ....  222

ORBITAL ENERGIES
----------------

  NO   OCC          E(Eh)            E(eV)
   0   2.0000    -107.138380     -2915.3835
   1   2.0000     -21.736489      -591.4799
   2   2.0000     -21.672654      -589.7429
   3   2.0000     -12.195775      -331.8639
   4   2.0000     -12.130862      -330.0975
   5   2.0000     -12.116331      -329.7021
   6   2.0000     -11.291384      -307.2542
   7   2.0000      -9.082893      -247.1581
   8   2.0000      -9.080052      -247.0808
   9   2.0000      -9.080040      -247.0804
  10   2.0000      -1.777486       -48.3679
  11   2.0000      -1.712038       -46.5869
  12   2.0000      -1.409614       -38.3575
  13   2.0000      -1.313956       -35.7546
  14   2.0000      -1.219684       -33.1893
  15   2.0000      -1.134459       -30.8702
  16   2.0000      -1.079177       -29.3659
  17   2.0000      -1.028753       -27.9938
  18   2.0000      -1.015460       -27.6321
  19   2.0000      -0.964201       -26.2372
  20   2.0000      -0.926585       -25.2136
  21   2.0000      -0.896122       -24.3847
  22   2.0000      -0.888664       -24.1818
  23   2.0000      -0.873895       -23.7799
  24   2.0000      -0.854811       -23.2606
  25   2.0000      -0.839608       -22.8469
  26   2.0000      -0.780247       -21.2316
  27   2.0000      -0.773275       -21.0419
  28   0.0000      -0.319907        -8.7051
  29   0.0000      -0.281645        -7.6639
  30   0.0000      -0.186209        -5.0670
  31   0.0000      -0.118188        -3.2160
  32   0.0000      -0.034044        -0.9264

MULLIKEN ATOMIC CHARGES
-----------------------
   0 C :   -0.188181
   1 O :   -0.249600
   2 C :    0.291358
   3 O :   -0.318885
   4 C :   -0.130318
   5 Cl:   -0.110585
   6 H :    0.133330
   7 H :    0.136787
   8 H :    0.136742
   9 H :    0.149695
  10 H :    0.149658
Sum of atomic charges:    0.0000000

LOEWDIN ATOMIC CHARGES
----------------------
   0 C :   -0.277438
   1 O :    0.225933
   2 C :   -0.515096
   3 O :    0.109482
   4 C :   -0.442156
   5 Cl:    0.284856
   6 H :    0.111655
   7 H :    0.113418
   8 H :    0.113405
   9 H :    0.137931
  10 H :    0.138010

  Mayer bond orders larger than 0.100000
B(  0-C ,  1-O ) :   0.8971 B(  0-C ,  6-H ) :   0.9702 B(  0-C ,  7-H ) :   0.9775
B(  0-C ,  8-H ) :   0.9774 B(  1-O ,  2-C ) :   1.1872 B(  2-C ,  3-O ) :   2.0707
B(  2-C ,  4-C ) :   0.9888 B(  4-C ,  5-Cl) :   1.1148 B(  4-C ,  9-H ) :   0.9541
B(  4-C , 10-H ) :   0.9538

FINAL SINGLE POINT ENERGY      -727.943583512278

DIPOLE MOMENT
-------------

Method             : SCF
Type of density    : Electron Density
Multiplicity       :   1
Irrep              :   0
Energy             :  -727.9509154416784895 Eh
Relativity type    :
Basis              : AO
                                X                 Y                 Z
Electronic contribution:      9.897854033      -1.266434338       0.006880939
Nuclear contribution   :    -10.930006524       2.214018405      -0.008573373
                        -----------------------------------------
Total Dipole Moment    :     -1.032152492       0.947584067      -0.001692434
                        -----------------------------------------
Magnitude (a.u.)       :      1.401162801
Magnitude (Debye)      :      3.561472805

Rotational constants in cm-1:             0.326091             0.045852             0.040825
Rotational constants in MHz :          9775.952168          1374.595065          1223.901057

                             ****ORCA TERMINATED NORMALLY****
TOTAL RUN TIME: 0 days 0 hours 1 minutes 14 seconds 24 msec
