                         Program Version 6.0.0  -   RELEASE  -
|  1> ! wb97x-v def2-tzvp def2/J RIJCOSX DEFGRID2 scfconv7 GCP(DFT/TZ) printgap
|  2> %output
|  3>     printlevel normal
|  4> end
|  5> %cpcm
|  6>     smd true
|  7>     smdsolvent "water"
|  8> end
|  9> * xyz 0 1
| 10> C -2.9059530180320774 -0.057625587059361515 0.001975940206925678
| 11> O -1.652626920244245 0.6824093691148095 0.0010480262995571296
| 12> C -0.5386348649220997 -0.06316455470909123 -0.0013464417500464842
| 13> O -0.5187785992246091 -1.2746869857838221 -0.0021492478253620027
| 14> C 0.6549463819119382 0.8648920062017125 -0.0037025183333351456
| 15> Cl 2.2160666450373716 -0.030949122808137403 0.001807531330913077
| 16> H -3.6851452829468645 0.7029128655683938 0.0035326509264789114
| 17> H -2.970953333876619 -0.6774075713079395 0.8986161223826169
| 18> H -2.9731679814118355 -0.6760310889648118 -0.8954494388982891
| 19> H 0.62186823869678 1.5038122525472903 0.8818730295795395
| 20> H 0.6237976032071726 1.4959905248540941 -0.8950055477193614
| 21> *
| 22>
| 23>                          ****END OF INPUT****

CARTESIAN COORDINATES (ANGSTROEM)
---------------------------------
  C     -2.905953   -0.057626    0.001976
  O     -1.652627    0.682409    0.001048
  C     -0.538635   -0.063165   -0.001346
  O     -0.518779   -1.274687   -0.002149
  C      0.654946    0.864892   -0.003703
  Cl     2.216067   -0.030949    0.001808
  H     -3.685145    0.702913    0.003533
  H     -2.970953   -0.677408    0.898616
  H     -2.973168   -0.676031   -0.895449
  H      0.621868    1.503812    0.881873
  H      0.623798    1.495991   -0.895006

 Total Charge           Charge          ....    0
 Multiplicity           Mult            ....    1
 Number of Electrons    NEL             ....   56
 Basis Dimension        Dim             ....  222

ORBITAL ENERGIES
----------------

  NO   OCC          E(Eh)            E(eV)
   0   2.0000    -107.141339     -2915.4641
   1   2.0000     -21.731518      -591.3447
   2   2.0000     -21.679206      -589.9212
   3   2.0000     -12.199485      -331.9649
   4   2.0000     -12.119749      -329.7951
   5   2.0000     -12.096281      -329.1565
   6   2.0000     -11.294510      -307.3392
   7   2.0000      -9.085966      -247.2417
   8   2.0000      -9.083302      -247.1692
   9   2.0000      -9.083266      -247.1682
  10   2.0000      -1.776212       -48.3332
  11   2.0000      -1.715898       -46.6920
  12   2.0000      -1.410414       -38.3793
  13   2.0000      -1.305800       -35.5326
  14   2.0000      -1.210166       -32.9303
  15   2.0000      -1.133110       -30.8335
  16   2.0000      -1.082396       -29.4535
  17   2.0000      -1.021152       -27.7870
  18   2.0000      -1.009177       -27.4611
  19   2.0000      -0.961174       -26.1549
  20   2.0000      -0.928395       -25.2629
  21   2.0000      -0.895060       -24.3558
  22   2.0000      -0.884478       -24.0679
  23   2.0000      -0.875942       -23.8356
  24   2.0000      -0.836318       -22.7574
  25   2.0000      -0.821870       -22.3642
  26   2.0000      -0.784053       -21.3352
  27   2.0000      -0.774622       -21.0785
  28   0.0000      -0.317179        -8.6309
  29   0.0000      -0.277093        -7.5401
  30   0.0000      -0.171203        -4.6587
  31   0.0000      -0.113592        -3.0910
  32   0.0000      -0.027931        -0.7600

MULLIKEN ATOMIC CHARGES
-----------------------
   0 C :   -0.224109
   1 O :   -0.264465
   2 C :    0.380368
   3 O :   -0.437643
   4 C :   -0.151704
   5 Cl:   -0.159947
   6 H :    0.160546
   7 H :    0.155110
   8 H :    0.155103
   9 H :    0.193307
  10 H :    0.193433
Sum of atomic charges:    0.0000000

LOEWDIN ATOMIC CHARGES
----------------------
   0 C :   -0.272750
   1 O :    0.228541
   2 C :   -0.492684
   3 O :    0.044969
   4 C :   -0.425338
   5 Cl:    0.254395
   6 H :    0.121006
   7 H :    0.117921
   8 H :    0.117921
   9 H :    0.152948
  10 H :    0.153070

  Mayer bond orders larger than 0.100000
B(  0-C ,  1-O ) :   0.8724 B(  0-C ,  6-H ) :   0.9655 B(  0-C ,  7-H ) :   0.9722
B(  0-C ,  8-H ) :   0.9722 B(  1-O ,  2-C ) :   1.2171 B(  2-C ,  3-O ) :   1.9531
B(  2-C ,  4-C ) :   1.0016 B(  4-C ,  5-Cl) :   1.0592 B(  4-C ,  9-H ) :   0.9420
B(  4-C , 10-H ) :   0.9416

FINAL SINGLE POINT ENERGY      -727.952777105095

DIPOLE MOMENT
-------------

Method             : SCF
Type of density    : Electron Density
Multiplicity       :   1
Irrep              :   0
Energy             :  -727.9601090344953036 Eh
Relativity type    :
Basis              : AO
                                X                 Y                 Z
Electronic contribution:      9.613652460      -0.807262537       0.006000003
Nuclear contribution   :    -10.930006524       2.214018405      -0.008573373
                        -----------------------------------------
Total Dipole Moment    :     -1.316354064       1.406755868      -0.002573370
                        -----------------------------------------
Magnitude (a.u.)       :      1.926591995
Magnitude (Debye)      :      4.897007680

Rotational constants in cm-1:             0.326091             0.045852             0.040825
Rotational constants in MHz :          9775.952168          1374.595065          1223.901057

                             ****ORCA TERMINATED NORMALLY****
TOTAL RUN TIME: 0 days 0 hours 1 minutes 16 seconds 843 msec
