                         Program Version 6.0.0  -   RELEASE  -
|  1> ! r2scan-3c def2/J RI DEFGRID2 scfconv6 printgap
|  2> %output
|  3>     printlevel normal
|  4> end
|  5> * xyz 0 1
|  6> C 0.0356086354 -1.2147056669 -0.0001037079
|  7> C 1.4071201391 -1.2117788844 -9.8557e-06
|  8> C 2.1131143554 0.0011661008 -2.71874e-05
|  9> C 1.4086577668 1.2124038412 -2.07516e-05
| 10> C 0.0347330719 1.2129135271 -9.74608e-05
| 11> C -0.6587012594 -0.0001025629 -0.0002165517
| 12> N -2.0662795012 0.0008200724 -0.0004282745
| 13> O -2.6592989874 -1.073618506 0.000261025
| 14> O -2.657545862 1.0765570069 0.0002789003
| 15> O 3.4442247959 -0.056528543 0.0001686176
| 16> H -0.5245129581 -2.136354021 -5.84744e-05
| 17> H 1.9683683017 -2.1314089062 0.0002309269
| 18> H 1.9435101644 2.1491590448 -1.60133e-05
| 19> H -0.5263641213 2.1342443577 9.8155e-05
| 20> H 3.8552447642 0.8248525066 0.0001161974
| 21> *
| 22>
| 23>                          ****END OF INPUT****

CARTESIAN COORDINATES (ANGSTROEM)
---------------------------------
  C      0.035609   -1.214706   -0.000104
  C      1.407120   -1.211779   -0.000010
  C      2.113114    0.001166   -0.000027
  C      1.408658    1.212404   -0.000021
  C      0.034733    1.212914   -0.000097
  C     -0.658701   -0.000103   -0.000217
  N     -2.066280    0.000820   -0.000428
  O     -2.659299   -1.073619    0.000261
  O     -2.657546    1.076557    0.000279
  O      3.444225   -0.056529    0.000169
  H     -0.524513   -2.136354   -0.000058
  H      1.968368   -2.131409    0.000231
  H      1.943510    2.149159   -0.000016
  H     -0.526364    2.134244    0.000098
  H      3.855245    0.824853    0.000116

 Total Charge           Charge          ....    0
 Multiplicity           Mult            ....    1
 Number of Electrons    NEL             ....   72
 Basis Dimension        Dim             ....  235

ORBITAL ENERGIES
----------------

  NO   OCC          E(Eh)            E(eV)
   0   2.0000     -19.024648      -517.6870
   1   2.0000     -18.970603      -516.2164
   2   2.0000     -18.969865      -516.1963
   3   2.0000     -14.383501      -391.3950
   4   2.0000     -10.138730      -275.8889
   5   2.0000     -10.096859      -274.7495
   6   2.0000     -10.074067      -274.1293
   7   2.0000     -10.072262      -274.0802
   8   2.0000     -10.068823      -273.9866
   9   2.0000     -10.063746      -273.8485
  10   2.0000      -1.188664       -32.3452
  11   2.0000      -1.074847       -29.2481
  12   2.0000      -1.007733       -27.4218
  13   2.0000      -0.866388       -23.5756
  14   2.0000      -0.784827       -21.3562
  15   2.0000      -0.756204       -20.5774
  16   2.0000      -0.681220       -18.5369
  17   2.0000      -0.625218       -17.0131
  18   2.0000      -0.584519       -15.9056
  19   2.0000      -0.553500       -15.0615
  20   2.0000      -0.519839       -14.1455
  21   2.0000      -0.501262       -13.6400
  22   2.0000      -0.489461       -13.3189
  23   2.0000      -0.459090       -12.4925
  24   2.0000      -0.443710       -12.0740
  25   2.0000      -0.426812       -11.6141
  26   2.0000      -0.421259       -11.4631
  27   2.0000      -0.413164       -11.2428
  28   2.0000      -0.382660       -10.4127
  29   2.0000      -0.346349        -9.4246
  30   2.0000      -0.338371        -9.2076
  31   2.0000      -0.282072        -7.6756
  32   2.0000      -0.273261        -7.4358
  33   2.0000      -0.270473        -7.3599
  34   2.0000      -0.245279        -6.6744
  35   2.0000      -0.241770        -6.5789
  36   0.0000      -0.115835        -3.1520
  37   0.0000      -0.062993        -1.7141
  38   0.0000      -0.019741        -0.5372
  39   0.0000       0.028734         0.7819
  40   0.0000       0.063223         1.7204

MULLIKEN ATOMIC CHARGES
-----------------------
   0 C :   -0.179549
   1 C :   -0.275634
   2 C :    0.445903
   3 C :   -0.292210
   4 C :   -0.188519
   5 C :    0.000505
   6 N :    0.349590
   7 O :   -0.241475
   8 O :   -0.243027
   9 O :   -0.389248
  10 H :    0.188002
  11 H :    0.164143
  12 H :    0.146249
  13 H :    0.187674
  14 H :    0.327597
Sum of atomic charges:    0.0000000

LOEWDIN ATOMIC CHARGES
----------------------
   0 C :   -0.059064
   1 C :   -0.129072
   2 C :    0.208618
   3 C :   -0.160021
   4 C :   -0.058597
   5 C :    0.175548
   6 N :   -0.506898
   7 O :   -0.031169
   8 O :   -0.033035
   9 O :   -0.463817
  10 H :    0.201135
  11 H :    0.186200
  12 H :    0.174614
  13 H :    0.201046
  14 H :    0.294512

  Mayer bond orders larger than 0.100000
B(  0-C ,  1-C ) :   1.3450 B(  0-C ,  5-C ) :   1.4004 B(  0-C ,  7-O ) :   0.1001
B(  0-C , 10-H ) :   0.9275 B(  1-C ,  2-C ) :   1.3612 B(  1-C ,  9-O ) :   0.1049
B(  1-C , 11-H ) :   0.9563 B(  2-C ,  3-C ) :   1.2856 B(  2-C ,  9-O ) :   0.9543
B(  3-C ,  4-C ) :   1.3751 B(  3-C , 12-H ) :   0.9283 B(  4-C ,  5-C ) :   1.4313
B(  4-C ,  8-O ) :   0.1007 B(  4-C , 13-H ) :   0.9181 B(  5-C ,  6-N ) :   1.0095
B(  6-N ,  7-O ) :   1.8317 B(  6-N ,  8-O ) :   1.8310 B(  7-O ,  8-O ) :   0.2320
B(  9-O , 14-H ) :   0.8720

Dispersion correction           -0.005149769
FINAL SINGLE POINT ENERGY      -511.894964440120

DIPOLE MOMENT
-------------

Method             : SCF
Type of density    : Electron Density
Multiplicity       :   1
Irrep              :   0
Energy             :  -511.9001558901164799 Eh
Relativity type    :
Basis              : AO
                                X                 Y                 Z
Electronic contribution:     -3.963194237      -0.273260638      -0.000705708
Nuclear contribution   :      6.261893155       0.787740206       0.000356006
                        -----------------------------------------
Total Dipole Moment    :      2.298698917       0.514479568      -0.000349702
                        -----------------------------------------
Magnitude (a.u.)       :      2.355569159
Magnitude (Debye)      :      5.987380976

Rotational constants in cm-1:             0.132913             0.027842             0.023020
Rotational constants in MHz :          3984.619510           834.688717           690.123322

                             ****ORCA TERMINATED NORMALLY****
TOTAL RUN TIME: 0 days 0 hours 0 minutes 31 seconds 186 msec
