                         Program Version 6.0.0  -   RELEASE  -
|  1> ! r2scan-3c def2/J RI DEFGRID2 scfconv6 printgap
|  2> %output
|  3>     printlevel normal
|  4> end
|  5> %cpcm
|  6>     smd true
|  7>     smdsolvent "water"
|  8> end
|  9> * xyz 0 1
| 10> C 0.0356086354 -1.2147056669 -0.0001037079
| 11> C 1.4071201391 -1.2117788844 -9.8557e-06
| 12> C 2.1131143554 0.0011661008 -2.71874e-05
| 13> C 1.4086577668 1.2124038412 -2.07516e-05
| 14> C 0.0347330719 1.2129135271 -9.74608e-05
| 15> C -0.6587012594 -0.0001025629 -0.0002165517
| 16> N -2.0662795012 0.0008200724 -0.0004282745
| 17> O -2.6592989874 -1.073618506 0.000261025
| 18> O -2.657545862 1.0765570069 0.0002789003
| 19> O 3.4442247959 -0.056528543 0.0001686176
| 20> H -0.5245129581 -2.136354021 -5.84744e-05
| 21> H 1.9683683017 -2.1314089062 0.0002309269
| 22> H 1.9435101644 2.1491590448 -1.60133e-05
| 23> H -0.5263641213 2.1342443577 9.8155e-05
| 24> H 3.8552447642 0.8248525066 0.0001161974
| 25> *
| 26>
| 27>                          ****END OF INPUT****

CARTESIAN COORDINATES (ANGSTROEM)
---------------------------------
  C      0.035609   -1.214706   -0.000104
  C      1.407120   -1.211779   -0.000010
  C      2.113114    0.001166   -0.000027
  C      1.408658    1.212404   -0.000021
  C      0.034733    1.212914   -0.000097
  C     -0.658701   -0.000103   -0.000217
  N     -2.066280    0.000820   -0.000428
  O     -2.659299   -1.073619    0.000261
  O     -2.657546    1.076557    0.000279
  O      3.444225   -0.056529    0.000169
  H     -0.524513   -2.136354   -0.000058
  H      1.968368   -2.131409    0.000231
  H      1.943510    2.149159   -0.000016
  H     -0.526364    2.134244    0.000098
  H      3.855245    0.824853    0.000116

 Total Charge           Charge          ....    0
 Multiplicity           Mult            ....    1
 Number of Electrons    NEL             ....   72
 Basis Dimension        Dim             ....  235

ORBITAL ENERGIES
----------------

  NO   OCC          E(Eh)            E(eV)
   0   2.0000     -19.003619      -517.1148
   1   2.0000     -18.984200      -516.5863
   2   2.0000     -18.984133      -516.5845
   3   2.0000     -14.396389      -391.7457
   4   2.0000     -10.125136      -275.5190
   5   2.0000     -10.091234      -274.5964
   6   2.0000     -10.062468      -273.8137
   7   2.0000     -10.062187      -273.8060
   8   2.0000     -10.050940      -273.5000
   9   2.0000     -10.049570      -273.4627
  10   2.0000      -1.202920       -32.7331
  11   2.0000      -1.052861       -28.6498
  12   2.0000      -1.022936       -27.8355
  13   2.0000      -0.858399       -23.3582
  14   2.0000      -0.780030       -21.2257
  15   2.0000      -0.742360       -20.2006
  16   2.0000      -0.672881       -18.3100
  17   2.0000      -0.610724       -16.6187
  18   2.0000      -0.574775       -15.6404
  19   2.0000      -0.537152       -14.6167
  20   2.0000      -0.528936       -14.3931
  21   2.0000      -0.512792       -13.9538
  22   2.0000      -0.495508       -13.4835
  23   2.0000      -0.458948       -12.4886
  24   2.0000      -0.426300       -11.6002
  25   2.0000      -0.410784       -11.1780
  26   2.0000      -0.405520       -11.0348
  27   2.0000      -0.401235       -10.9182
  28   2.0000      -0.366908        -9.9841
  29   2.0000      -0.336302        -9.1512
  30   2.0000      -0.322346        -8.7715
  31   2.0000      -0.297850        -8.1049
  32   2.0000      -0.291231        -7.9248
  33   2.0000      -0.263330        -7.1656
  34   2.0000      -0.260678        -7.0934
  35   2.0000      -0.232109        -6.3160
  36   0.0000      -0.122581        -3.3356
  37   0.0000      -0.050191        -1.3658
  38   0.0000      -0.013787        -0.3752
  39   0.0000       0.076548         2.0830
  40   0.0000       0.084265         2.2930

MULLIKEN ATOMIC CHARGES
-----------------------
   0 C :   -0.209615
   1 C :   -0.308990
   2 C :    0.414848
   3 C :   -0.299308
   4 C :   -0.196901
   5 C :    0.045674
   6 N :    0.393932
   7 O :   -0.315945
   8 O :   -0.316625
   9 O :   -0.406786
  10 H :    0.208045
  11 H :    0.197998
  12 H :    0.199323
  13 H :    0.208099
  14 H :    0.386250
Sum of atomic charges:    0.0000000

LOEWDIN ATOMIC CHARGES
----------------------
   0 C :   -0.061377
   1 C :   -0.127925
   2 C :    0.217288
   3 C :   -0.139060
   4 C :   -0.059422
   5 C :    0.171694
   6 N :   -0.513996
   7 O :   -0.078503
   8 O :   -0.079652
   9 O :   -0.454426
  10 H :    0.206446
  11 H :    0.197296
  12 H :    0.196100
  13 H :    0.206770
  14 H :    0.318766

  Mayer bond orders larger than 0.100000
B(  0-C ,  1-C ) :   1.3867 B(  0-C ,  5-C ) :   1.3127 B(  0-C , 10-H ) :   0.9350
B(  1-C ,  2-C ) :   1.3084 B(  1-C , 11-H ) :   0.9528 B(  2-C ,  3-C ) :   1.2816
B(  2-C ,  9-O ) :   0.9904 B(  3-C ,  4-C ) :   1.3724 B(  3-C , 12-H ) :   0.9431
B(  4-C ,  5-C ) :   1.3228 B(  4-C , 13-H ) :   0.9344 B(  5-C ,  6-N ) :   1.0609
B(  6-N ,  7-O ) :   1.7620 B(  6-N ,  8-O ) :   1.7604 B(  7-O ,  8-O ) :   0.2036
B(  9-O , 14-H ) :   0.8382

Dispersion correction           -0.005149769
FINAL SINGLE POINT ENERGY      -511.909167018358

DIPOLE MOMENT
-------------

Method             : SCF
Type of density    : Electron Density
Multiplicity       :   1
Irrep              :   0
Energy             :  -511.9143584683553740 Eh
Relativity type    :
Basis              : AO
                                X                 Y                 Z
Electronic contribution:     -2.829432287      -0.014114676      -0.000832877
Nuclear contribution   :      6.261893155       0.787740206       0.000356006
                        -----------------------------------------
Total Dipole Moment    :      3.432460868       0.773625531      -0.000476871
                        -----------------------------------------
Magnitude (a.u.)       :      3.518562818
Magnitude (Debye)      :      8.943475933

Rotational constants in cm-1:             0.132913             0.027842             0.023020
Rotational constants in MHz :          3984.619510           834.688717           690.123322

                             ****ORCA TERMINATED NORMALLY****
TOTAL RUN TIME: 0 days 0 hours 0 minutes 39 seconds 751 msec
