                         Program Version 6.0.0  -   RELEASE  -
|  1> ! r2scan-3c def2/J RI DEFGRID2 scfconv6 printgap
|  2> %output
|  3>     printlevel normal
|  4> end
|  5> * xyz 0 1
|  6> C -2.5619896267 -0.8861606263 0.2462263046
|  7> C -1.1341350665 -0.4513072342 0.6057033164
|  8> H -1.0376483753 -0.4112777044 1.7010844737
|  9> C -0.8324232745 0.9473850851 0.0480312394
| 10> H -1.0734566646 0.9622818147 -1.0252198228
| 11> C 0.6559762118 1.283279598 0.2192439212
| 12> H 0.8581571595 1.4111363991 1.2970515537
| 13> C 1.531140435 0.1430967685 -0.3232071685
| 14> H 1.3691572233 0.0589827497 -1.4039796892
| 15> C 1.1061172387 -1.1722646811 0.3574954837
| 16> H 1.2463270853 -1.0795787642 1.449140167
| 17> O -0.2535956432 -1.4243499277 0.0736448822
| 18> O 1.8558230938 -2.260000607 -0.0277617274
| 19> O 2.8972584339 0.4271958397 -0.163772199
| 20> O 0.9093428323 2.4918886218 -0.4565856623
| 21> O -1.6379745992 1.8597097345 0.7490306101
| 22> O -2.7478377918 -1.0199577307 -1.137296803
| 23> H -3.2521723235 -0.1120788361 0.5840091059
| 24> H -2.7822633851 -1.8281716864 0.7612887768
| 25> H 1.716571707 -2.4495641345 -0.9688222668
| 26> H 3.174311992 0.2560883737 0.7479032781
| 27> H 1.867988703 2.5928380205 -0.5619451691
| 28> H -1.4536904103 2.7497475122 0.4129777233
| 29> H -2.1515781385 -1.7124450548 -1.4569555742
| 30> *
| 31>
| 32>                          ****END OF INPUT****

CARTESIAN COORDINATES (ANGSTROEM)
---------------------------------
  C     -2.561990   -0.886161    0.246226
  C     -1.134135   -0.451307    0.605703
  H     -1.037648   -0.411278    1.701084
  C     -0.832423    0.947385    0.048031
  H     -1.073457    0.962282   -1.025220
  C      0.655976    1.283280    0.219244
  H      0.858157    1.411136    1.297052
  C      1.531140    0.143097   -0.323207
  H      1.369157    0.058983   -1.403980
  C      1.106117   -1.172265    0.357495
  H      1.246327   -1.079579    1.449140
  O     -0.253596   -1.424350    0.073645
  O      1.855823   -2.260001   -0.027762
  O      2.897258    0.427196   -0.163772
  O      0.909343    2.491889   -0.456586
  O     -1.637975    1.859710    0.749031
  O     -2.747838   -1.019958   -1.137297
  H     -3.252172   -0.112079    0.584009
  H     -2.782263   -1.828172    0.761289
  H      1.716572   -2.449564   -0.968822
  H      3.174312    0.256088    0.747903
  H      1.867989    2.592838   -0.561945
  H     -1.453690    2.749748    0.412978
  H     -2.151578   -1.712445   -1.456956

 Total Charge           Charge          ....    0
 Multiplicity           Mult            ....    1
 Number of Electrons    NEL             ....   96
 Basis Dimension        Dim             ....  318

ORBITAL ENERGIES
----------------

  NO   OCC          E(Eh)            E(eV)
   0   2.0000     -18.980449      -516.4843
   1   2.0000     -18.976908      -516.3879
   2   2.0000     -18.975706      -516.3552
   3   2.0000     -18.962917      -516.0072
   4   2.0000     -18.958837      -515.8962
   5   2.0000     -18.952503      -515.7238
   6   2.0000     -10.151636      -276.2401
   7   2.0000     -10.099139      -274.8115
   8   2.0000     -10.096866      -274.7497
   9   2.0000     -10.093842      -274.6674
  10   2.0000     -10.089994      -274.5627
  11   2.0000     -10.080037      -274.2918
  12   2.0000      -1.061045       -28.8725
  13   2.0000      -1.020130       -27.7591
  14   2.0000      -1.010089       -27.4859
  15   2.0000      -0.997238       -27.1362
  16   2.0000      -0.988416       -26.8962
  17   2.0000      -0.984894       -26.8003
  18   2.0000      -0.754498       -20.5309
  19   2.0000      -0.741821       -20.1860
  20   2.0000      -0.661296       -17.9948
  21   2.0000      -0.628085       -17.0911
  22   2.0000      -0.600811       -16.3489
  23   2.0000      -0.572563       -15.5802
  24   2.0000      -0.532483       -14.4896
  25   2.0000      -0.517856       -14.0916
  26   2.0000      -0.493174       -13.4200
  27   2.0000      -0.478650       -13.0247
  28   2.0000      -0.473414       -12.8822
  29   2.0000      -0.461906       -12.5691
  30   2.0000      -0.450146       -12.2491
  31   2.0000      -0.441477       -12.0132
  32   2.0000      -0.398394       -10.8408
  33   2.0000      -0.396678       -10.7942
  34   2.0000      -0.387936       -10.5563
  35   2.0000      -0.379805       -10.3350
  36   2.0000      -0.354382        -9.6432
  37   2.0000      -0.343215        -9.3394
  38   2.0000      -0.333819        -9.0837
  39   2.0000      -0.325946        -8.8695
  40   2.0000      -0.313302        -8.5254
  41   2.0000      -0.303050        -8.2464
  42   2.0000      -0.284996        -7.7551
  43   2.0000      -0.276306        -7.5187
  44   2.0000      -0.260630        -7.0921
  45   2.0000      -0.243399        -6.6232
  46   2.0000      -0.241530        -6.5724
  47   2.0000      -0.230007        -6.2588
  48   0.0000       0.024884         0.6771
  49   0.0000       0.047259         1.2860
  50   0.0000       0.054791         1.4909
  51   0.0000       0.061168         1.6645
  52   0.0000       0.079590         2.1658

MULLIKEN ATOMIC CHARGES
-----------------------
   0 C :   -0.248407
   1 C :    0.028579
   2 H :    0.164580
   3 C :   -0.060171
   4 H :    0.195101
   5 C :    0.035276
   6 H :    0.165126
   7 C :   -0.009912
   8 H :    0.170726
   9 C :   -0.205756
  10 H :    0.157997
  11 O :   -0.210120
  12 O :   -0.337809
  13 O :   -0.394939
  14 O :   -0.439044
  15 O :   -0.442347
  16 O :   -0.422020
  17 H :    0.160677
  18 H :    0.141501
  19 H :    0.315147
  20 H :    0.304152
  21 H :    0.312037
  22 H :    0.313193
  23 H :    0.306432
Sum of atomic charges:    0.0000000

LOEWDIN ATOMIC CHARGES
----------------------
   0 C :    0.044266
   1 C :    0.116640
   2 H :    0.188041
   3 C :    0.112548
   4 H :    0.194082
   5 C :    0.095850
   6 H :    0.179326
   7 C :    0.100697
   8 H :    0.199120
   9 C :    0.286759
  10 H :    0.193046
  11 O :   -0.683703
  12 O :   -0.473960
  13 O :   -0.561864
  14 O :   -0.581147
  15 O :   -0.578274
  16 O :   -0.589873
  17 H :    0.197174
  18 H :    0.166070
  19 H :    0.281559
  20 H :    0.274813
  21 H :    0.282954
  22 H :    0.282956
  23 H :    0.272922

  Mayer bond orders larger than 0.100000
B(  0-C ,  1-C ) :   0.9423 B(  0-C , 16-O ) :   1.0332 B(  0-C , 17-H ) :   0.9617
B(  0-C , 18-H ) :   0.9820 B(  1-C ,  2-H ) :   0.9312 B(  1-C ,  3-C ) :   0.8536
B(  1-C , 11-O ) :   0.7585 B(  1-C , 16-O ) :  -0.1141 B(  3-C ,  4-H ) :   0.9993
B(  3-C ,  5-C ) :   0.8071 B(  3-C , 15-O ) :   0.8696 B(  5-C ,  6-H ) :   0.9799
B(  5-C ,  7-C ) :   0.8794 B(  5-C , 14-O ) :   0.8920 B(  7-C ,  8-H ) :   0.9430
B(  7-C ,  9-C ) :   0.8275 B(  7-C , 13-O ) :   1.0142 B(  9-C , 10-H ) :   1.0182
B(  9-C , 11-O ) :   0.9592 B(  9-C , 12-O ) :   1.1305 B( 12-O , 19-H ) :   0.8770
B( 13-O , 20-H ) :   0.8856 B( 14-O , 21-H ) :   0.8716 B( 15-O , 22-H ) :   0.8830
B( 16-O , 23-H ) :   0.8807

Dispersion correction           -0.008069109
FINAL SINGLE POINT ENERGY      -687.076334283442

DIPOLE MOMENT
-------------

Method             : SCF
Type of density    : Electron Density
Multiplicity       :   1
Irrep              :   0
Energy             :  -687.0875573117571093 Eh
Relativity type    :
Basis              : AO
                                X                 Y                 Z
Electronic contribution:      2.089979453      -0.469705155      -1.146888574
Nuclear contribution   :     -1.409263934       0.411983227       1.427266413
                        -----------------------------------------
Total Dipole Moment    :      0.680715520      -0.057721929       0.280377839
                        -----------------------------------------
Magnitude (a.u.)       :      0.738455938
Magnitude (Debye)      :      1.877005826

Rotational constants in cm-1:             0.038847             0.027005             0.017823
Rotational constants in MHz :          1164.589324           809.580579           534.320144

                             ****ORCA TERMINATED NORMALLY****
TOTAL RUN TIME: 0 days 0 hours 0 minutes 48 seconds 666 msec
