                         Program Version 6.0.0  -   RELEASE  -
|  1> ! r2scan-3c def2/J RI DEFGRID2 scfconv6 printgap
|  2> %output
|  3>     printlevel normal
|  4> end
|  5> %cpcm
|  6>     smd true
|  7>     smdsolvent "water"
|  8> end
|  9> * xyz 0 1
| 10> C -2.5619896267 -0.8861606263 0.2462263046
| 11> C -1.1341350665 -0.4513072342 0.6057033164
| 12> H -1.0376483753 -0.4112777044 1.7010844737
| 13> C -0.8324232745 0.9473850851 0.0480312394
| 14> H -1.0734566646 0.9622818147 -1.0252198228
| 15> C 0.6559762118 1.283279598 0.2192439212
| 16> H 0.8581571595 1.4111363991 1.2970515537
| 17> C 1.531140435 0.1430967685 -0.3232071685
| 18> H 1.3691572233 0.0589827497 -1.4039796892
| 19> C 1.1061172387 -1.1722646811 0.3574954837
| 20> H 1.2463270853 -1.0795787642 1.449140167
| 21> O -0.2535956432 -1.4243499277 0.0736448822
| 22> O 1.8558230938 -2.260000607 -0.0277617274
| 23> O 2.8972584339 0.4271958397 -0.163772199
| 24> O 0.9093428323 2.4918886218 -0.4565856623
| 25> O -1.6379745992 1.8597097345 0.7490306101
| 26> O -2.7478377918 -1.0199577307 -1.137296803
| 27> H -3.2521723235 -0.1120788361 0.5840091059
| 28> H -2.7822633851 -1.8281716864 0.7612887768
| 29> H 1.716571707 -2.4495641345 -0.9688222668
| 30> H 3.174311992 0.2560883737 0.7479032781
| 31> H 1.867988703 2.5928380205 -0.5619451691
| 32> H -1.4536904103 2.7497475122 0.4129777233
| 33> H -2.1515781385 -1.7124450548 -1.4569555742
| 34> *
| 35>
| 36>                          ****END OF INPUT****

CARTESIAN COORDINATES (ANGSTROEM)
---------------------------------
  C     -2.561990   -0.886161    0.246226
  C     -1.134135   -0.451307    0.605703
  H     -1.037648   -0.411278    1.701084
  C     -0.832423    0.947385    0.048031
  H     -1.073457    0.962282   -1.025220
  C      0.655976    1.283280    0.219244
  H      0.858157    1.411136    1.297052
  C      1.531140    0.143097   -0.323207
  H      1.369157    0.058983   -1.403980
  C      1.106117   -1.172265    0.357495
  H      1.246327   -1.079579    1.449140
  O     -0.253596   -1.424350    0.073645
  O      1.855823   -2.260001   -0.027762
  O      2.897258    0.427196   -0.163772
  O      0.909343    2.491889   -0.456586
  O     -1.637975    1.859710    0.749031
  O     -2.747838   -1.019958   -1.137297
  H     -3.252172   -0.112079    0.584009
  H     -2.782263   -1.828172    0.761289
  H      1.716572   -2.449564   -0.968822
  H      3.174312    0.256088    0.747903
  H      1.867989    2.592838   -0.561945
  H     -1.453690    2.749748    0.412978
  H     -2.151578   -1.712445   -1.456956

 Total Charge           Charge          ....    0
 Multiplicity           Mult            ....    1
 Number of Electrons    NEL             ....   96
 Basis Dimension        Dim             ....  318

ORBITAL ENERGIES
----------------

  NO   OCC          E(Eh)            E(eV)
   0   2.0000     -18.974675      -516.3272
   1   2.0000     -18.970362      -516.2098
   2   2.0000     -18.963938      -516.0350
   3   2.0000     -18.960015      -515.9282
   4   2.0000     -18.958459      -515.8859
   5   2.0000     -18.956772      -515.8400
   6   2.0000     -10.138026      -275.8697
   7   2.0000     -10.089157      -274.5399
   8   2.0000     -10.085784      -274.4481
   9   2.0000     -10.085078      -274.4289
  10   2.0000     -10.083266      -274.3796
  11   2.0000     -10.076147      -274.1859
  12   2.0000      -1.053642       -28.6710
  13   2.0000      -1.012498       -27.5515
  14   2.0000      -1.005785       -27.3688
  15   2.0000      -0.995320       -27.0840
  16   2.0000      -0.984754       -26.7965
  17   2.0000      -0.981987       -26.7212
  18   2.0000      -0.746828       -20.3222
  19   2.0000      -0.732702       -19.9378
  20   2.0000      -0.654124       -17.7996
  21   2.0000      -0.617248       -16.7962
  22   2.0000      -0.593851       -16.1595
  23   2.0000      -0.564133       -15.3508
  24   2.0000      -0.522666       -14.2225
  25   2.0000      -0.509830       -13.8732
  26   2.0000      -0.485937       -13.2230
  27   2.0000      -0.472233       -12.8501
  28   2.0000      -0.466653       -12.6983
  29   2.0000      -0.454870       -12.3776
  30   2.0000      -0.442955       -12.0534
  31   2.0000      -0.432818       -11.7776
  32   2.0000      -0.398641       -10.8476
  33   2.0000      -0.393115       -10.6972
  34   2.0000      -0.380640       -10.3577
  35   2.0000      -0.376380       -10.2418
  36   2.0000      -0.349360        -9.5066
  37   2.0000      -0.341220        -9.2851
  38   2.0000      -0.331387        -9.0175
  39   2.0000      -0.318915        -8.6781
  40   2.0000      -0.311540        -8.4774
  41   2.0000      -0.304515        -8.2863
  42   2.0000      -0.281132        -7.6500
  43   2.0000      -0.272529        -7.4159
  44   2.0000      -0.254710        -6.9310
  45   2.0000      -0.246369        -6.7040
  46   2.0000      -0.241175        -6.5627
  47   2.0000      -0.224188        -6.1005
  48   0.0000       0.040438         1.1004
  49   0.0000       0.065347         1.7782
  50   0.0000       0.071399         1.9429
  51   0.0000       0.087294         2.3754
  52   0.0000       0.092875         2.5273

MULLIKEN ATOMIC CHARGES
-----------------------
   0 C :   -0.249697
   1 C :    0.024787
   2 H :    0.192593
   3 C :   -0.055133
   4 H :    0.191162
   5 C :    0.026948
   6 H :    0.183458
   7 C :   -0.013712
   8 H :    0.193498
   9 C :   -0.146234
  10 H :    0.183794
  11 O :   -0.253171
  12 O :   -0.420397
  13 O :   -0.468202
  14 O :   -0.500172
  15 O :   -0.503039
  16 O :   -0.492403
  17 H :    0.166603
  18 H :    0.160251
  19 H :    0.368623
  20 H :    0.357725
  21 H :    0.348295
  22 H :    0.351453
  23 H :    0.352970
Sum of atomic charges:    0.0000000

LOEWDIN ATOMIC CHARGES
----------------------
   0 C :    0.042009
   1 C :    0.119034
   2 H :    0.199354
   3 C :    0.110941
   4 H :    0.193956
   5 C :    0.101219
   6 H :    0.190737
   7 C :    0.106708
   8 H :    0.206528
   9 C :    0.291801
  10 H :    0.208193
  11 O :   -0.695617
  12 O :   -0.502304
  13 O :   -0.582057
  14 O :   -0.605326
  15 O :   -0.604828
  16 O :   -0.623562
  17 H :    0.197360
  18 H :    0.175306
  19 H :    0.299264
  20 H :    0.293012
  21 H :    0.294582
  22 H :    0.295577
  23 H :    0.288113

  Mayer bond orders larger than 0.100000
B(  0-C ,  1-C ) :   0.9422 B(  0-C , 16-O ) :   1.0113 B(  0-C , 17-H ) :   0.9636
B(  0-C , 18-H ) :   0.9718 B(  1-C ,  2-H ) :   0.9224 B(  1-C ,  3-C ) :   0.8784
B(  1-C , 11-O ) :   0.7691 B(  1-C , 16-O ) :  -0.1045 B(  3-C ,  4-H ) :   0.9824
B(  3-C ,  5-C ) :   0.8524 B(  3-C , 15-O ) :   0.8454 B(  5-C ,  6-H ) :   0.9636
B(  5-C ,  7-C ) :   0.8907 B(  5-C , 14-O ) :   0.8805 B(  7-C ,  8-H ) :   0.9526
B(  7-C ,  9-C ) :   0.8369 B(  7-C , 13-O ) :   0.9967 B(  9-C , 10-H ) :   0.9931
B(  9-C , 11-O ) :   0.9488 B(  9-C , 12-O ) :   1.1124 B( 12-O , 19-H ) :   0.8479
B( 13-O , 20-H ) :   0.8579 B( 14-O , 21-H ) :   0.8554 B( 15-O , 22-H ) :   0.8639
B( 16-O , 23-H ) :   0.8569

Dispersion correction           -0.008069109
FINAL SINGLE POINT ENERGY      -687.111219870182

DIPOLE MOMENT
-------------

Method             : SCF
Type of density    : Electron Density
Multiplicity       :   1
Irrep              :   0
Energy             :  -687.1224428984968426 Eh
Relativity type    :
Basis              : AO
                                X                 Y                 Z
Electronic contribution:      2.398664645      -0.518677784      -0.916991902
Nuclear contribution   :     -1.409263934       0.411983227       1.427266413
                        -----------------------------------------
Total Dipole Moment    :      0.989400712      -0.106694558       0.510274511
                        -----------------------------------------
Magnitude (a.u.)       :      1.118336968
Magnitude (Debye)      :      2.842586668

Rotational constants in cm-1:             0.038847             0.027005             0.017823
Rotational constants in MHz :          1164.589324           809.580579           534.320144

                             ****ORCA TERMINATED NORMALLY****
TOTAL RUN TIME: 0 days 0 hours 0 minutes 57 seconds 720 msec
