                         Program Version 6.0.0  -   RELEASE  -
|  1> ! wb97x-v def2-tzvp def2/J RIJCOSX DEFGRID2 scfconv7 GCP(DFT/TZ) printgap
|  2> %output
|  3>     printlevel normal
|  4> end
|  5> * xyz 0 1
|  6> C -2.6603576732744134 -0.6598991077421441 -0.7503507879800615
|  7> C -1.8758871263356725 -0.4637557099879696 0.5540211170921995
|  8> C -0.39672779705732586 -0.31120330930427936 0.3053191093521059
|  9> C 0.4133684397383977 -1.45006075669653 0.2676081107972148
| 10> C 1.7764027065905028 -1.3659834648805653 -0.0039893352061127745
| 11> C 2.350700909820148 -0.12086166532537412 -0.2418098689774544
| 12> C 1.5545042527168027 1.0210624914548285 -0.20600694812966308
| 13> C 0.18355306259912357 0.9494900225542666 0.06218655150084738
| 14> C -0.6372579186608088 2.2093283855859522 0.10282346343503322
| 15> H -3.7325033659937596 -0.7523980743232044 -0.5487469690936342
| 16> H -2.3300322706793852 -1.568757203700869 -1.2639946845129728
| 17> H -2.5144352525561398 0.18421864232770743 -1.4320827384402184
| 18> H -2.041626512527399 -1.331486851702004 1.201895638805564
| 19> H -2.2643633084771797 0.411609599217534 1.084082849784736
| 20> H -0.03813456261282884 -2.421014296857372 0.4577035786170763
| 21> H 2.3840895109979687 -2.2656003902323065 -0.02484325673773286
| 22> H 3.4125855145202655 -0.03606116944626576 -0.45208412180661
| 23> H 2.0034222274034907 1.9940644952288107 -0.3886382344477936
| 24> H -1.4909594450280974 2.1601106326987147 -0.5810655436905292
| 25> H -1.041601087576913 2.3898239235276866 1.1056091300671949
| 26> H -0.028863872352569243 3.0737143946295955 -0.17433049844308343
| 27> *
| 28>
| 29>                          ****END OF INPUT****

CARTESIAN COORDINATES (ANGSTROEM)
---------------------------------
  C     -2.660358   -0.659899   -0.750351
  C     -1.875887   -0.463756    0.554021
  C     -0.396728   -0.311203    0.305319
  C      0.413368   -1.450061    0.267608
  C      1.776403   -1.365983   -0.003989
  C      2.350701   -0.120862   -0.241810
  C      1.554504    1.021062   -0.206007
  C      0.183553    0.949490    0.062187
  C     -0.637258    2.209328    0.102823
  H     -3.732503   -0.752398   -0.548747
  H     -2.330032   -1.568757   -1.263995
  H     -2.514435    0.184219   -1.432083
  H     -2.041627   -1.331487    1.201896
  H     -2.264363    0.411610    1.084083
  H     -0.038135   -2.421014    0.457704
  H      2.384090   -2.265600   -0.024843
  H      3.412586   -0.036061   -0.452084
  H      2.003422    1.994064   -0.388638
  H     -1.490959    2.160111   -0.581066
  H     -1.041601    2.389824    1.105609
  H     -0.028864    3.073714   -0.174330

 Total Charge           Charge          ....    0
 Multiplicity           Mult            ....    1
 Number of Electrons    NEL             ....   66
 Basis Dimension        Dim             ....  351

ORBITAL ENERGIES
----------------

  NO   OCC          E(Eh)            E(eV)
   0   2.0000     -12.055462      -328.0458
   1   2.0000     -12.051742      -327.9446
   2   2.0000     -12.046948      -327.8141
   3   2.0000     -12.045758      -327.7817
   4   2.0000     -12.044798      -327.7556
   5   2.0000     -12.043389      -327.7173
   6   2.0000     -12.042692      -327.6983
   7   2.0000     -12.042269      -327.6868
   8   2.0000     -12.037884      -327.5675
   9   2.0000      -1.382509       -37.6200
  10   2.0000      -1.302163       -35.4337
  11   2.0000      -1.285322       -34.9754
  12   2.0000      -1.238464       -33.7003
  13   2.0000      -1.189559       -32.3696
  14   2.0000      -1.125522       -30.6270
  15   2.0000      -1.086636       -29.5689
  16   2.0000      -1.061056       -28.8728
  17   2.0000      -0.956190       -26.0193
  18   2.0000      -0.946846       -25.7650
  19   2.0000      -0.907351       -24.6903
  20   2.0000      -0.874917       -23.8077
  21   2.0000      -0.866159       -23.5694
  22   2.0000      -0.861160       -23.4334
  23   2.0000      -0.846010       -23.0211
  24   2.0000      -0.832561       -22.6551
  25   2.0000      -0.824080       -22.4244
  26   2.0000      -0.812718       -22.1152
  27   2.0000      -0.802017       -21.8240
  28   2.0000      -0.781333       -21.2612
  29   2.0000      -0.768731       -20.9182
  30   2.0000      -0.752337       -20.4721
  31   2.0000      -0.630672       -17.1615
  32   2.0000      -0.626327       -17.0432
  33   0.0000      -0.237735        -6.4691
  34   0.0000      -0.231648        -6.3035
  35   0.0000      -0.072976        -1.9858
  36   0.0000      -0.053543        -1.4570
  37   0.0000      -0.023725        -0.6456

MULLIKEN ATOMIC CHARGES
-----------------------
   0 C :   -0.330603
   1 C :   -0.214189
   2 C :    0.145487
   3 C :   -0.199993
   4 C :   -0.124127
   5 C :   -0.131392
   6 C :   -0.168647
   7 C :    0.058994
   8 C :   -0.382546
   9 H :    0.111191
  10 H :    0.113349
  11 H :    0.104790
  12 H :    0.104710
  13 H :    0.102366
  14 H :    0.110258
  15 H :    0.113174
  16 H :    0.113393
  17 H :    0.106041
  18 H :    0.119352
  19 H :    0.131882
  20 H :    0.116511
Sum of atomic charges:   -0.0000000

LOEWDIN ATOMIC CHARGES
----------------------
   0 C :   -0.293531
   1 C :   -0.238336
   2 C :   -0.118609
   3 C :   -0.114313
   4 C :   -0.146236
   5 C :   -0.146161
   6 C :   -0.119154
   7 C :   -0.139542
   8 C :   -0.251186
   9 H :    0.115246
  10 H :    0.118659
  11 H :    0.115712
  12 H :    0.138849
  13 H :    0.137439
  14 H :    0.143763
  15 H :    0.139992
  16 H :    0.140102
  17 H :    0.141919
  18 H :    0.124042
  19 H :    0.126872
  20 H :    0.124473

  Mayer bond orders larger than 0.100000
B(  0-C ,  1-C ) :   0.9915 B(  0-C ,  9-H ) :   0.9799 B(  0-C , 10-H ) :   0.9805
B(  0-C , 11-H ) :   0.9774 B(  1-C ,  2-C ) :   0.8955 B(  1-C , 12-H ) :   0.9903
B(  1-C , 13-H ) :   0.9818 B(  2-C ,  3-C ) :   1.3981 B(  2-C ,  7-C ) :   1.3518
B(  3-C ,  4-C ) :   1.4274 B(  3-C , 14-H ) :   0.9783 B(  4-C ,  5-C ) :   1.4188
B(  4-C , 15-H ) :   0.9772 B(  5-C ,  6-C ) :   1.4250 B(  5-C , 16-H ) :   0.9770
B(  6-C ,  7-C ) :   1.4335 B(  6-C , 17-H ) :   0.9713 B(  7-C ,  8-C ) :   0.9195
B(  8-C , 18-H ) :   0.9764 B(  8-C , 19-H ) :   0.9871 B(  8-C , 20-H ) :   0.9897

FINAL SINGLE POINT ENERGY      -350.204353988551

DIPOLE MOMENT
-------------

Method             : SCF
Type of density    : Electron Density
Multiplicity       :   1
Irrep              :   0
Energy             :  -350.2170159038507791 Eh
Relativity type    :
Basis              : AO
                                X                 Y                 Z
Electronic contribution:      7.056389505      -1.676537194       0.980758030
Nuclear contribution   :     -7.278980702       1.766894163      -0.958707364
                        -----------------------------------------
Total Dipole Moment    :     -0.222591197       0.090356970       0.022050666
                        -----------------------------------------
Magnitude (a.u.)       :      0.241241486
Magnitude (Debye)      :      0.613187127

Rotational constants in cm-1:             0.083663             0.047821             0.033130
Rotational constants in MHz :          2508.141509          1433.624555           993.212617

                             ****ORCA TERMINATED NORMALLY****
TOTAL RUN TIME: 0 days 0 hours 3 minutes 54 seconds 65 msec
