                         Program Version 6.0.0  -   RELEASE  -
|  1> ! wb97x-v def2-tzvp def2/J RIJCOSX DEFGRID2 scfconv7 GCP(DFT/TZ) printgap
|  2> %output
|  3>     printlevel normal
|  4> end
|  5> %cpcm
|  6>     smd true
|  7>     smdsolvent "water"
|  8> end
|  9> * xyz 0 1
| 10> C -2.6603576732744134 -0.6598991077421441 -0.7503507879800615
| 11> C -1.8758871263356725 -0.4637557099879696 0.5540211170921995
| 12> C -0.39672779705732586 -0.31120330930427936 0.3053191093521059
| 13> C 0.4133684397383977 -1.45006075669653 0.2676081107972148
| 14> C 1.7764027065905028 -1.3659834648805653 -0.0039893352061127745
| 15> C 2.350700909820148 -0.12086166532537412 -0.2418098689774544
| 16> C 1.5545042527168027 1.0210624914548285 -0.20600694812966308
| 17> C 0.18355306259912357 0.9494900225542666 0.06218655150084738
| 18> C -0.6372579186608088 2.2093283855859522 0.10282346343503322
| 19> H -3.7325033659937596 -0.7523980743232044 -0.5487469690936342
| 20> H -2.3300322706793852 -1.568757203700869 -1.2639946845129728
| 21> H -2.5144352525561398 0.18421864232770743 -1.4320827384402184
| 22> H -2.041626512527399 -1.331486851702004 1.201895638805564
| 23> H -2.2643633084771797 0.411609599217534 1.084082849784736
| 24> H -0.03813456261282884 -2.421014296857372 0.4577035786170763
| 25> H 2.3840895109979687 -2.2656003902323065 -0.02484325673773286
| 26> H 3.4125855145202655 -0.03606116944626576 -0.45208412180661
| 27> H 2.0034222274034907 1.9940644952288107 -0.3886382344477936
| 28> H -1.4909594450280974 2.1601106326987147 -0.5810655436905292
| 29> H -1.041601087576913 2.3898239235276866 1.1056091300671949
| 30> H -0.028863872352569243 3.0737143946295955 -0.17433049844308343
| 31> *
| 32>
| 33>                          ****END OF INPUT****

CARTESIAN COORDINATES (ANGSTROEM)
---------------------------------
  C     -2.660358   -0.659899   -0.750351
  C     -1.875887   -0.463756    0.554021
  C     -0.396728   -0.311203    0.305319
  C      0.413368   -1.450061    0.267608
  C      1.776403   -1.365983   -0.003989
  C      2.350701   -0.120862   -0.241810
  C      1.554504    1.021062   -0.206007
  C      0.183553    0.949490    0.062187
  C     -0.637258    2.209328    0.102823
  H     -3.732503   -0.752398   -0.548747
  H     -2.330032   -1.568757   -1.263995
  H     -2.514435    0.184219   -1.432083
  H     -2.041627   -1.331487    1.201896
  H     -2.264363    0.411610    1.084083
  H     -0.038135   -2.421014    0.457704
  H      2.384090   -2.265600   -0.024843
  H      3.412586   -0.036061   -0.452084
  H      2.003422    1.994064   -0.388638
  H     -1.490959    2.160111   -0.581066
  H     -1.041601    2.389824    1.105609
  H     -0.028864    3.073714   -0.174330

 Total Charge           Charge          ....    0
 Multiplicity           Mult            ....    1
 Number of Electrons    NEL             ....   66
 Basis Dimension        Dim             ....  351

ORBITAL ENERGIES
----------------

  NO   OCC          E(Eh)            E(eV)
   0   2.0000     -12.054541      -328.0207
   1   2.0000     -12.050657      -327.9151
   2   2.0000     -12.044731      -327.7538
   3   2.0000     -12.043559      -327.7219
   4   2.0000     -12.041962      -327.6784
   5   2.0000     -12.041299      -327.6604
   6   2.0000     -12.038020      -327.5712
   7   2.0000     -12.032017      -327.4078
   8   2.0000     -12.028764      -327.3193
   9   2.0000      -1.382541       -37.6209
  10   2.0000      -1.299325       -35.3564
  11   2.0000      -1.283040       -34.9133
  12   2.0000      -1.233834       -33.5743
  13   2.0000      -1.183986       -32.2179
  14   2.0000      -1.120714       -30.4962
  15   2.0000      -1.083988       -29.4968
  16   2.0000      -1.057153       -28.7666
  17   2.0000      -0.954674       -25.9780
  18   2.0000      -0.943849       -25.6835
  19   2.0000      -0.902442       -24.5567
  20   2.0000      -0.870597       -23.6902
  21   2.0000      -0.862645       -23.4738
  22   2.0000      -0.852768       -23.2050
  23   2.0000      -0.839364       -22.8403
  24   2.0000      -0.824940       -22.4478
  25   2.0000      -0.815541       -22.1920
  26   2.0000      -0.806617       -21.9492
  27   2.0000      -0.796362       -21.6701
  28   2.0000      -0.774486       -21.0748
  29   2.0000      -0.759812       -20.6755
  30   2.0000      -0.752993       -20.4900
  31   2.0000      -0.632202       -17.2031
  32   2.0000      -0.627023       -17.0622
  33   0.0000      -0.238420        -6.4877
  34   0.0000      -0.232679        -6.3315
  35   0.0000      -0.072393        -1.9699
  36   0.0000      -0.047210        -1.2847
  37   0.0000      -0.011903        -0.3239

MULLIKEN ATOMIC CHARGES
-----------------------
   0 C :   -0.394884
   1 C :   -0.198709
   2 C :    0.103588
   3 C :   -0.238133
   4 C :   -0.173740
   5 C :   -0.180958
   6 C :   -0.213659
   7 C :    0.037957
   8 C :   -0.420693
   9 H :    0.128907
  10 H :    0.126297
  11 H :    0.126675
  12 H :    0.120900
  13 H :    0.122653
  14 H :    0.152962
  15 H :    0.156799
  16 H :    0.157255
  17 H :    0.152655
  18 H :    0.143035
  19 H :    0.150245
  20 H :    0.140848
Sum of atomic charges:   -0.0000000

LOEWDIN ATOMIC CHARGES
----------------------
   0 C :   -0.299527
   1 C :   -0.236747
   2 C :   -0.125667
   3 C :   -0.123922
   4 C :   -0.161318
   5 C :   -0.161223
   6 C :   -0.130357
   7 C :   -0.146276
   8 C :   -0.252777
   9 H :    0.119019
  10 H :    0.119520
  11 H :    0.119175
  12 H :    0.143144
  13 H :    0.142540
  14 H :    0.153439
  15 H :    0.148668
  16 H :    0.148735
  17 H :    0.151648
  18 H :    0.130286
  19 H :    0.132344
  20 H :    0.129297

  Mayer bond orders larger than 0.100000
B(  0-C ,  1-C ) :   0.9755 B(  0-C ,  9-H ) :   0.9770 B(  0-C , 10-H ) :   0.9796
B(  0-C , 11-H ) :   0.9766 B(  1-C ,  2-C ) :   0.9138 B(  1-C , 12-H ) :   0.9815
B(  1-C , 13-H ) :   0.9776 B(  2-C ,  3-C ) :   1.3845 B(  2-C ,  7-C ) :   1.3262
B(  3-C ,  4-C ) :   1.4047 B(  3-C , 14-H ) :   0.9852 B(  4-C ,  5-C ) :   1.3957
B(  4-C , 15-H ) :   0.9815 B(  5-C ,  6-C ) :   1.4010 B(  5-C , 16-H ) :   0.9812
B(  6-C ,  7-C ) :   1.4138 B(  6-C , 17-H ) :   0.9779 B(  7-C ,  8-C ) :   0.9356
B(  8-C , 18-H ) :   0.9716 B(  8-C , 19-H ) :   0.9787 B(  8-C , 20-H ) :   0.9847

FINAL SINGLE POINT ENERGY      -350.205505276339

DIPOLE MOMENT
-------------

Method             : SCF
Type of density    : Electron Density
Multiplicity       :   1
Irrep              :   0
Energy             :  -350.2181671916392816 Eh
Relativity type    :
Basis              : AO
                                X                 Y                 Z
Electronic contribution:      6.907192780      -1.609225956       1.003672813
Nuclear contribution   :     -7.278980702       1.766894163      -0.958707364
                        -----------------------------------------
Total Dipole Moment    :     -0.371787921       0.157668207       0.044965450
                        -----------------------------------------
Magnitude (a.u.)       :      0.406334116
Magnitude (Debye)      :      1.032819243

Rotational constants in cm-1:             0.083663             0.047821             0.033130
Rotational constants in MHz :          2508.141509          1433.624555           993.212617

                             ****ORCA TERMINATED NORMALLY****
TOTAL RUN TIME: 0 days 0 hours 3 minutes 43 seconds 228 msec
