                         Program Version 6.0.0  -   RELEASE  -
|  1> ! pbe def2-sv(p) def2/J RI DEFGRID1 loosescf d4 GCP(DFT/SV(P)) printgap
|  2> %output
|  3>     printlevel normal
|  4> end
|  5> * xyz 0 1
|  6> C -2.2882477601 -0.8787227769 0.7933045099
|  7> C -0.8326940222 -0.3970345709 0.7385461262
|  8> H -0.5269462108 -0.1017918547 1.7512262136
|  9> C -0.6378887161 0.8026376403 -0.2043189221
| 10> H -0.8229700745 0.4670540862 -1.2344919039
| 11> C 0.8191139922 1.2962455735 -0.1029271811
| 12> H 0.8431303082 2.1004644919 0.639752653
| 13> C 1.7613767872 0.1707032421 0.3764946574
| 14> H 2.7458938202 0.3625951105 -0.070956192
| 15> C 1.2520295617 -1.1747528428 -0.1678801251
| 16> H 1.8983879507 -1.9975575952 0.1763976733
| 17> O -0.0334806444 -1.497651936 0.3013043852
| 18> O 1.2832757835 -1.0776960885 -1.5613086202
| 19> O 1.8282130246 0.1835674457 1.7778007513
| 20> O 1.2735634431 1.8588373482 -1.3035485723
| 21> O -1.4847279545 1.8750372581 0.1249191017
| 22> O -2.864603649 -1.0580963697 -0.4761867127
| 23> H -2.8870966076 -0.1231400516 1.3035868848
| 24> H -2.3161805982 -1.8072114364 1.3736484503
| 25> H 1.0991086761 -1.9395467421 -1.9648964228
| 26> H 2.5754833815 -0.3508204667 2.0841254196
| 27> H 1.2969710662 1.1648310923 -1.9824136281
| 28> H -2.37621404 1.6890335479 -0.2029639809
| 29> H -2.4432767792 -1.8160454611 -0.9034365692
| 30> *
| 31>
| 32>                          ****END OF INPUT****

CARTESIAN COORDINATES (ANGSTROEM)
---------------------------------
  C     -2.288248   -0.878723    0.793305
  C     -0.832694   -0.397035    0.738546
  H     -0.526946   -0.101792    1.751226
  C     -0.637889    0.802638   -0.204319
  H     -0.822970    0.467054   -1.234492
  C      0.819114    1.296246   -0.102927
  H      0.843130    2.100464    0.639753
  C      1.761377    0.170703    0.376495
  H      2.745894    0.362595   -0.070956
  C      1.252030   -1.174753   -0.167880
  H      1.898388   -1.997558    0.176398
  O     -0.033481   -1.497652    0.301304
  O      1.283276   -1.077696   -1.561309
  O      1.828213    0.183567    1.777801
  O      1.273563    1.858837   -1.303549
  O     -1.484728    1.875037    0.124919
  O     -2.864604   -1.058096   -0.476187
  H     -2.887097   -0.123140    1.303587
  H     -2.316181   -1.807211    1.373648
  H      1.099109   -1.939547   -1.964896
  H      2.575483   -0.350820    2.084125
  H      1.296971    1.164831   -1.982414
  H     -2.376214    1.689034   -0.202964
  H     -2.443277   -1.816045   -0.903437

 Total Charge           Charge          ....    0
 Multiplicity           Mult            ....    1
 Number of Electrons    NEL             ....   96
 Basis Dimension        Dim             ....  192

ORBITAL ENERGIES
----------------

  NO   OCC          E(Eh)            E(eV)
   0   2.0000     -18.779919      -511.0276
   1   2.0000     -18.770210      -510.7634
   2   2.0000     -18.763420      -510.5786
   3   2.0000     -18.753388      -510.3056
   4   2.0000     -18.743333      -510.0320
   5   2.0000     -18.732824      -509.7461
   6   2.0000      -9.992934      -271.9216
   7   2.0000      -9.944553      -270.6050
   8   2.0000      -9.932154      -270.2677
   9   2.0000      -9.931322      -270.2450
  10   2.0000      -9.931163      -270.2407
  11   2.0000      -9.930144      -270.2130
  12   2.0000      -0.987047       -26.8589
  13   2.0000      -0.940112       -25.5817
  14   2.0000      -0.934391       -25.4261
  15   2.0000      -0.923320       -25.1248
  16   2.0000      -0.916775       -24.9467
  17   2.0000      -0.907130       -24.6843
  18   2.0000      -0.695497       -18.9254
  19   2.0000      -0.689873       -18.7724
  20   2.0000      -0.623403       -16.9637
  21   2.0000      -0.581929       -15.8351
  22   2.0000      -0.564152       -15.3513
  23   2.0000      -0.520454       -14.1623
  24   2.0000      -0.502453       -13.6725
  25   2.0000      -0.481960       -13.1148
  26   2.0000      -0.472893       -12.8681
  27   2.0000      -0.457472       -12.4484
  28   2.0000      -0.450479       -12.2582
  29   2.0000      -0.441933       -12.0256
  30   2.0000      -0.415122       -11.2960
  31   2.0000      -0.390293       -10.6204
  32   2.0000      -0.374967       -10.2034
  33   2.0000      -0.367178        -9.9914
  34   2.0000      -0.357294        -9.7225
  35   2.0000      -0.353853        -9.6288
  36   2.0000      -0.337550        -9.1852
  37   2.0000      -0.310805        -8.4574
  38   2.0000      -0.298199        -8.1144
  39   2.0000      -0.289817        -7.8863
  40   2.0000      -0.277962        -7.5637
  41   2.0000      -0.270262        -7.3542
  42   2.0000      -0.257496        -7.0068
  43   2.0000      -0.243218        -6.6183
  44   2.0000      -0.233720        -6.3599
  45   2.0000      -0.216891        -5.9019
  46   2.0000      -0.209333        -5.6962
  47   2.0000      -0.198902        -5.4124
  48   0.0000       0.006571         0.1788
  49   0.0000       0.013388         0.3643
  50   0.0000       0.026521         0.7217
  51   0.0000       0.054992         1.4964
  52   0.0000       0.066323         1.8048

MULLIKEN ATOMIC CHARGES
-----------------------
   0 C :    0.047413
   1 C :    0.012887
   2 H :    0.072948
   3 C :    0.062627
   4 H :    0.028836
   5 C :    0.119279
   6 H :    0.080181
   7 C :   -0.008777
   8 H :    0.076425
   9 C :    0.170679
  10 H :    0.048379
  11 O :   -0.325058
  12 O :   -0.399231
  13 O :   -0.402390
  14 O :   -0.427940
  15 O :   -0.409346
  16 O :   -0.439657
  17 H :    0.087912
  18 H :    0.086837
  19 H :    0.306709
  20 H :    0.304670
  21 H :    0.299222
  22 H :    0.309785
  23 H :    0.297610
Sum of atomic charges:   -0.0000000

LOEWDIN ATOMIC CHARGES
----------------------
   0 C :   -0.133169
   1 C :   -0.083447
   2 H :    0.115146
   3 C :   -0.077327
   4 H :    0.097472
   5 C :   -0.055046
   6 H :    0.129390
   7 C :   -0.090451
   8 H :    0.111557
   9 C :   -0.010234
  10 H :    0.089394
  11 O :   -0.158189
  12 O :   -0.313184
  13 O :   -0.305625
  14 O :   -0.312593
  15 O :   -0.312923
  16 O :   -0.337981
  17 H :    0.115300
  18 H :    0.105981
  19 H :    0.288663
  20 H :    0.289815
  21 H :    0.273835
  22 H :    0.289563
  23 H :    0.284050

  Mayer bond orders larger than 0.100000
B(  0-C ,  1-C ) :   1.0293 B(  0-C , 16-O ) :   1.0608 B(  0-C , 17-H ) :   0.9149
B(  0-C , 18-H ) :   0.9236 B(  1-C ,  2-H ) :   0.8560 B(  1-C ,  3-C ) :   1.0428
B(  1-C , 11-O ) :   0.9611 B(  3-C ,  4-H ) :   0.8396 B(  3-C ,  5-C ) :   1.0315
B(  3-C , 15-O ) :   1.0950 B(  5-C ,  6-H ) :   0.8523 B(  5-C ,  7-C ) :   0.9996
B(  5-C , 14-O ) :   1.0500 B(  7-C ,  8-H ) :   0.8881 B(  7-C ,  9-C ) :   1.0155
B(  7-C , 13-O ) :   1.0452 B(  9-C , 10-H ) :   0.8952 B(  9-C , 11-O ) :   1.0823
B(  9-C , 12-O ) :   1.1098 B( 12-O , 19-H ) :   0.8379 B( 13-O , 20-H ) :   0.8453
B( 14-O , 21-H ) :   0.8354 B( 15-O , 22-H ) :   0.8405 B( 16-O , 23-H ) :   0.8479

Dispersion correction           -0.025019099
FINAL SINGLE POINT ENERGY      -685.692811781615

DIPOLE MOMENT
-------------

Method             : SCF
Type of density    : Electron Density
Multiplicity       :   1
Irrep              :   0
Energy             :  -685.8233875830142097 Eh
Relativity type    :
Basis              : AO
                                X                 Y                 Z
Electronic contribution:      1.370767191       0.440103480      -1.085399827
Nuclear contribution   :     -0.857181397      -2.202495751       0.892785299
                        -----------------------------------------
Total Dipole Moment    :      0.513585794      -1.762392272      -0.192614528
                        -----------------------------------------
Magnitude (a.u.)       :      1.845778222
Magnitude (Debye)      :      4.691595393

Rotational constants in cm-1:             0.040874             0.026701             0.023189
Rotational constants in MHz :          1225.374375           800.477564           695.201630

                             ****ORCA TERMINATED NORMALLY****
TOTAL RUN TIME: 0 days 0 hours 0 minutes 11 seconds 949 msec
