                         Program Version 6.0.0  -   RELEASE  -
|  1> ! pbe def2-sv(p) def2/J RI DEFGRID1 loosescf d4 GCP(DFT/SV(P)) printgap
|  2> %output
|  3>     printlevel normal
|  4> end
|  5> * xyz 0 1
|  6> C -2.5735176091 -0.5413956182 1.0740780589
|  7> C -1.7501947485 0.0424685802 -0.0399594179
|  8> O -2.2421341966 0.3122052453 -1.1189531322
|  9> C -0.278152025 0.2347366398 0.260044463
| 10> C 0.4202025968 1.0856166706 -0.810170283
| 11> C 1.8967618789 0.7121682145 -0.9700322963
| 12> C 2.4854076162 0.3164710279 0.3796097085
| 13> C 1.8380785472 -0.980216362 0.8820225516
| 14> C 0.4038613142 -1.1384216824 0.3633791498
| 15> H -2.0978776921 -0.4182434882 2.0404276056
| 16> H -3.5596664418 -0.0838317908 1.0727752766
| 17> H -2.7111628923 -1.6030205942 0.874215949
| 18> H -0.2027889862 0.7200749775 1.2374923064
| 19> H -0.1033726603 0.9531901275 -1.7600014578
| 20> H 0.3318194545 2.1387956486 -0.5364018618
| 21> H 2.0043842374 -0.1212926469 -1.6659175328
| 22> H 2.4416121027 1.5597612113 -1.3876431335
| 23> H 3.5648453945 0.1844262946 0.2971232766
| 24> H 2.3071305775 1.1264779742 1.0892122018
| 25> H 2.4233840627 -1.839638256 0.5521393041
| 26> H 1.8361781555 -0.9829650866 1.9729242519
| 27> H 0.4051344381 -1.5947752593 -0.6276785688
| 28> H -0.1542897617 -1.7943633658 1.0306238169
| 29> *
| 30>
| 31>                          ****END OF INPUT****

CARTESIAN COORDINATES (ANGSTROEM)
---------------------------------
  C     -2.573518   -0.541396    1.074078
  C     -1.750195    0.042469   -0.039959
  O     -2.242134    0.312205   -1.118953
  C     -0.278152    0.234737    0.260044
  C      0.420203    1.085617   -0.810170
  C      1.896762    0.712168   -0.970032
  C      2.485408    0.316471    0.379610
  C      1.838079   -0.980216    0.882023
  C      0.403861   -1.138422    0.363379
  H     -2.097878   -0.418243    2.040428
  H     -3.559666   -0.083832    1.072775
  H     -2.711163   -1.603021    0.874216
  H     -0.202789    0.720075    1.237492
  H     -0.103373    0.953190   -1.760001
  H      0.331819    2.138796   -0.536402
  H      2.004384   -0.121293   -1.665918
  H      2.441612    1.559761   -1.387643
  H      3.564845    0.184426    0.297123
  H      2.307131    1.126478    1.089212
  H      2.423384   -1.839638    0.552139
  H      1.836178   -0.982965    1.972924
  H      0.405134   -1.594775   -0.627679
  H     -0.154290   -1.794363    1.030624

 Total Charge           Charge          ....    0
 Multiplicity           Mult            ....    1
 Number of Electrons    NEL             ....   70
 Basis Dimension        Dim             ....  154

ORBITAL ENERGIES
----------------

  NO   OCC          E(Eh)            E(eV)
   0   2.0000     -18.735061      -509.8069
   1   2.0000      -9.970782      -271.3188
   2   2.0000      -9.899312      -269.3740
   3   2.0000      -9.896057      -269.2854
   4   2.0000      -9.888364      -269.0761
   5   2.0000      -9.886285      -269.0195
   6   2.0000      -9.883542      -268.9448
   7   2.0000      -9.881192      -268.8809
   8   2.0000      -9.877006      -268.7670
   9   2.0000      -0.933006       -25.3884
  10   2.0000      -0.762118       -20.7383
  11   2.0000      -0.692858       -18.8536
  12   2.0000      -0.666439       -18.1347
  13   2.0000      -0.653973       -17.7955
  14   2.0000      -0.567059       -15.4305
  15   2.0000      -0.547336       -14.8938
  16   2.0000      -0.489516       -13.3204
  17   2.0000      -0.462455       -12.5840
  18   2.0000      -0.445540       -12.1238
  19   2.0000      -0.427309       -11.6277
  20   2.0000      -0.408563       -11.1176
  21   2.0000      -0.387297       -10.5389
  22   2.0000      -0.380315       -10.3489
  23   2.0000      -0.378217       -10.2918
  24   2.0000      -0.356571        -9.7028
  25   2.0000      -0.338958        -9.2235
  26   2.0000      -0.333388        -9.0719
  27   2.0000      -0.329132        -8.9561
  28   2.0000      -0.321729        -8.7547
  29   2.0000      -0.311243        -8.4693
  30   2.0000      -0.304683        -8.2909
  31   2.0000      -0.270136        -7.3508
  32   2.0000      -0.264802        -7.2056
  33   2.0000      -0.263714        -7.1760
  34   2.0000      -0.194276        -5.2865
  35   0.0000      -0.048941        -1.3318
  36   0.0000       0.021584         0.5873
  37   0.0000       0.043427         1.1817
  38   0.0000       0.057014         1.5514
  39   0.0000       0.070099         1.9075

MULLIKEN ATOMIC CHARGES
-----------------------
   0 C :   -0.244571
   1 C :    0.029126
   2 O :   -0.167484
   3 C :   -0.215335
   4 C :   -0.107491
   5 C :   -0.150627
   6 C :   -0.158832
   7 C :   -0.135077
   8 C :   -0.142225
   9 H :    0.108761
  10 H :    0.125653
  11 H :    0.136599
  12 H :    0.078057
  13 H :    0.098276
  14 H :    0.079396
  15 H :    0.076901
  16 H :    0.085332
  17 H :    0.086562
  18 H :    0.076529
  19 H :    0.085042
  20 H :    0.081035
  21 H :    0.085729
  22 H :    0.088644
Sum of atomic charges:    0.0000000

LOEWDIN ATOMIC CHARGES
----------------------
   0 C :   -0.362995
   1 C :    0.051704
   2 O :   -0.129193
   3 C :   -0.171553
   4 C :   -0.221589
   5 C :   -0.227923
   6 C :   -0.231207
   7 C :   -0.226790
   8 C :   -0.211598
   9 H :    0.126514
  10 H :    0.142727
  11 H :    0.149784
  12 H :    0.125975
  13 H :    0.125388
  14 H :    0.118442
  15 H :    0.114738
  16 H :    0.119093
  17 H :    0.118224
  18 H :    0.113773
  19 H :    0.119301
  20 H :    0.116532
  21 H :    0.122580
  22 H :    0.118072

  Mayer bond orders larger than 0.100000
B(  0-C ,  1-C ) :   1.0737 B(  0-C ,  9-H ) :   0.9353 B(  0-C , 10-H ) :   0.9266
B(  0-C , 11-H ) :   0.9181 B(  1-C ,  2-O ) :   2.1810 B(  1-C ,  3-C ) :   0.9326
B(  3-C ,  4-C ) :   1.1033 B(  3-C ,  8-C ) :   1.1275 B(  3-C , 12-H ) :   0.8611
B(  4-C ,  5-C ) :   1.1527 B(  4-C , 13-H ) :   0.8934 B(  4-C , 14-H ) :   0.9162
B(  5-C ,  6-C ) :   1.1808 B(  5-C , 15-H ) :   0.9067 B(  5-C , 16-H ) :   0.9195
B(  6-C ,  7-C ) :   1.1380 B(  6-C , 17-H ) :   0.9222 B(  6-C , 18-H ) :   0.9123
B(  7-C ,  8-C ) :   1.1517 B(  7-C , 19-H ) :   0.9180 B(  7-C , 20-H ) :   0.9203
B(  8-C , 21-H ) :   0.8956 B(  8-C , 22-H ) :   0.9168

Dispersion correction           -0.021883710
FINAL SINGLE POINT ENERGY      -387.600475501300

DIPOLE MOMENT
-------------

Method             : SCF
Type of density    : Electron Density
Multiplicity       :   1
Irrep              :   0
Energy             :  -387.6783898672296687 Eh
Relativity type    :
Basis              : AO
                                X                 Y                 Z
Electronic contribution:     -5.605388170       1.336634756      -3.077950321
Nuclear contribution   :      6.051063036      -1.642230274       3.913655608
                        -----------------------------------------
Total Dipole Moment    :      0.445674865      -0.305595518       0.835705287
                        -----------------------------------------
Magnitude (a.u.)       :      0.995197484
Magnitude (Debye)      :      2.529590975

Rotational constants in cm-1:             0.101608             0.037307             0.030114
Rotational constants in MHz :          3046.139604          1118.430654           902.809809

                             ****ORCA TERMINATED NORMALLY****
TOTAL RUN TIME: 0 days 0 hours 0 minutes 9 seconds 468 msec
