                         Program Version 6.0.0  -   RELEASE  -
|  1> ! r2scan-3c def2/J RI DEFGRID2 scfconv6 printgap
|  2> %output
|  3>     printlevel normal
|  4> end
|  5> * xyz 0 1
|  6> C -1.7915868424 -0.7324029667 -0.5772771655
|  7> C -0.702387459 0.319343058 -0.3644257491
|  8> C -1.004374222 1.1248811952 0.8979104014
|  9> C 0.7023765266 -0.3193634134 -0.36441508
| 10> C 1.7915975907 0.7323500916 -0.5773115352
| 11> C 1.0043702744 -1.124816445 0.8979724806
| 12> H -1.8329389875 -1.4240267038 0.2604971276
| 13> H -2.7636303797 -0.2527269535 -0.666653925
| 14> H -1.6059888732 -1.301579358 -1.4854692296
| 15> H -0.7358869842 1.0066126998 -1.2188380387
| 16> H -1.0835495456 0.4719345551 1.7630115037
| 17> H -0.2311443555 1.864487227 1.0865588643
| 18> H -1.9509510566 1.6483813993 0.7824679969
| 19> H 0.7358904421 -1.006684025 -1.2187951131
| 20> H 2.7636780167 0.2527002182 -0.666322223
| 21> H 1.6061632932 1.3012347253 -1.4857091167
| 22> H 1.8327701459 1.4242484934 0.2602503523
| 23> H 1.951377168 -1.6476165884 0.7828731719
| 24> H 0.2315268568 -1.8649389077 1.086239661
| 25> H 1.0827334971 -0.4719257233 1.7631698379
| 26> *
| 27>
| 28>                          ****END OF INPUT****

CARTESIAN COORDINATES (ANGSTROEM)
---------------------------------
  C     -1.791587   -0.732403   -0.577277
  C     -0.702387    0.319343   -0.364426
  C     -1.004374    1.124881    0.897910
  C      0.702377   -0.319363   -0.364415
  C      1.791598    0.732350   -0.577312
  C      1.004370   -1.124816    0.897972
  H     -1.832939   -1.424027    0.260497
  H     -2.763630   -0.252727   -0.666654
  H     -1.605989   -1.301579   -1.485469
  H     -0.735887    1.006613   -1.218838
  H     -1.083550    0.471935    1.763012
  H     -0.231144    1.864487    1.086559
  H     -1.950951    1.648381    0.782468
  H      0.735890   -1.006684   -1.218795
  H      2.763678    0.252700   -0.666322
  H      1.606163    1.301235   -1.485709
  H      1.832770    1.424248    0.260250
  H      1.951377   -1.647617    0.782873
  H      0.231527   -1.864939    1.086240
  H      1.082733   -0.471926    1.763170

 Total Charge           Charge          ....    0
 Multiplicity           Mult            ....    1
 Number of Electrons    NEL             ....   50
 Basis Dimension        Dim             ....  184

ORBITAL ENERGIES
----------------

  NO   OCC          E(Eh)            E(eV)
   0   2.0000     -10.028763      -272.8965
   1   2.0000     -10.028648      -272.8934
   2   2.0000     -10.012104      -272.4432
   3   2.0000     -10.012100      -272.4431
   4   2.0000     -10.011867      -272.4367
   5   2.0000     -10.011864      -272.4367
   6   2.0000      -0.785184       -21.3659
   7   2.0000      -0.713253       -19.4086
   8   2.0000      -0.649764       -17.6810
   9   2.0000      -0.644690       -17.5429
  10   2.0000      -0.576296       -15.6818
  11   2.0000      -0.500460       -13.6182
  12   2.0000      -0.439352       -11.9554
  13   2.0000      -0.416355       -11.3296
  14   2.0000      -0.410426       -11.1683
  15   2.0000      -0.374380       -10.1874
  16   2.0000      -0.367198        -9.9920
  17   2.0000      -0.355312        -9.6685
  18   2.0000      -0.343760        -9.3542
  19   2.0000      -0.340477        -9.2648
  20   2.0000      -0.314120        -8.5476
  21   2.0000      -0.313185        -8.5222
  22   2.0000      -0.282067        -7.6754
  23   2.0000      -0.280080        -7.6214
  24   2.0000      -0.274654        -7.4737
  25   0.0000       0.079589         2.1657
  26   0.0000       0.118473         3.2238
  27   0.0000       0.119291         3.2461
  28   0.0000       0.126120         3.4319
  29   0.0000       0.132095         3.5945

MULLIKEN ATOMIC CHARGES
-----------------------
   0 C :   -0.505753
   1 C :   -0.024017
   2 C :   -0.514571
   3 C :   -0.024106
   4 C :   -0.505717
   5 C :   -0.514553
   6 H :    0.151176
   7 H :    0.146585
   8 H :    0.145962
   9 H :    0.146131
  10 H :    0.156825
  11 H :    0.151785
  12 H :    0.145901
  13 H :    0.146124
  14 H :    0.146582
  15 H :    0.145966
  16 H :    0.151154
  17 H :    0.145882
  18 H :    0.151797
  19 H :    0.156846
Sum of atomic charges:    0.0000000

LOEWDIN ATOMIC CHARGES
----------------------
   0 C :   -0.416271
   1 C :   -0.243367
   2 C :   -0.415933
   3 C :   -0.243369
   4 C :   -0.416275
   5 C :   -0.415926
   6 H :    0.151616
   7 H :    0.152994
   8 H :    0.152725
   9 H :    0.156584
  10 H :    0.154204
  11 H :    0.153432
  12 H :    0.154017
  13 H :    0.156584
  14 H :    0.152990
  15 H :    0.152724
  16 H :    0.151614
  17 H :    0.154015
  18 H :    0.153435
  19 H :    0.154208

  Mayer bond orders larger than 0.100000
B(  0-C ,  1-C ) :   0.9172 B(  0-C ,  6-H ) :   0.9874 B(  0-C ,  7-H ) :   0.9754
B(  0-C ,  8-H ) :   0.9786 B(  1-C ,  2-C ) :   0.8769 B(  1-C ,  3-C ) :   0.8806
B(  1-C ,  9-H ) :   0.9754 B(  2-C , 10-H ) :   0.9784 B(  2-C , 11-H ) :   0.9811
B(  2-C , 12-H ) :   0.9690 B(  3-C ,  4-C ) :   0.9172 B(  3-C ,  5-C ) :   0.8769
B(  3-C , 13-H ) :   0.9754 B(  4-C , 14-H ) :   0.9754 B(  4-C , 15-H ) :   0.9786
B(  4-C , 16-H ) :   0.9874 B(  5-C , 17-H ) :   0.9690 B(  5-C , 18-H ) :   0.9811
B(  5-C , 19-H ) :   0.9784

Dispersion correction           -0.005319883
FINAL SINGLE POINT ENERGY      -236.988647095373

DIPOLE MOMENT
-------------

Method             : SCF
Type of density    : Electron Density
Multiplicity       :   1
Irrep              :   0
Energy             :  -236.9931374533638291 Eh
Relativity type    :
Basis              : AO
                                X                 Y                 Z
Electronic contribution:     -0.000062833      -0.000063997      -1.032964987
Nuclear contribution   :      0.000046193       0.000094809       0.978765606
                        -----------------------------------------
Total Dipole Moment    :     -0.000016640       0.000030812      -0.054199381
                        -----------------------------------------
Magnitude (a.u.)       :      0.054199392
Magnitude (Debye)      :      0.137763907

Rotational constants in cm-1:             0.143762             0.083985             0.076578
Rotational constants in MHz :          4309.881459          2517.809880          2295.738146

                             ****ORCA TERMINATED NORMALLY****
TOTAL RUN TIME: 0 days 0 hours 0 minutes 17 seconds 800 msec
