                         Program Version 6.0.0  -   RELEASE  -
|  1> ! r2scan-3c def2/J RI DEFGRID2 scfconv6 printgap
|  2> %output
|  3>     printlevel normal
|  4> end
|  5> %cpcm
|  6>     smd true
|  7>     smdsolvent "water"
|  8> end
|  9> * xyz 0 1
| 10> C -1.7915868424 -0.7324029667 -0.5772771655
| 11> C -0.702387459 0.319343058 -0.3644257491
| 12> C -1.004374222 1.1248811952 0.8979104014
| 13> C 0.7023765266 -0.3193634134 -0.36441508
| 14> C 1.7915975907 0.7323500916 -0.5773115352
| 15> C 1.0043702744 -1.124816445 0.8979724806
| 16> H -1.8329389875 -1.4240267038 0.2604971276
| 17> H -2.7636303797 -0.2527269535 -0.666653925
| 18> H -1.6059888732 -1.301579358 -1.4854692296
| 19> H -0.7358869842 1.0066126998 -1.2188380387
| 20> H -1.0835495456 0.4719345551 1.7630115037
| 21> H -0.2311443555 1.864487227 1.0865588643
| 22> H -1.9509510566 1.6483813993 0.7824679969
| 23> H 0.7358904421 -1.006684025 -1.2187951131
| 24> H 2.7636780167 0.2527002182 -0.666322223
| 25> H 1.6061632932 1.3012347253 -1.4857091167
| 26> H 1.8327701459 1.4242484934 0.2602503523
| 27> H 1.951377168 -1.6476165884 0.7828731719
| 28> H 0.2315268568 -1.8649389077 1.086239661
| 29> H 1.0827334971 -0.4719257233 1.7631698379
| 30> *
| 31>
| 32>                          ****END OF INPUT****

CARTESIAN COORDINATES (ANGSTROEM)
---------------------------------
  C     -1.791587   -0.732403   -0.577277
  C     -0.702387    0.319343   -0.364426
  C     -1.004374    1.124881    0.897910
  C      0.702377   -0.319363   -0.364415
  C      1.791598    0.732350   -0.577312
  C      1.004370   -1.124816    0.897972
  H     -1.832939   -1.424027    0.260497
  H     -2.763630   -0.252727   -0.666654
  H     -1.605989   -1.301579   -1.485469
  H     -0.735887    1.006613   -1.218838
  H     -1.083550    0.471935    1.763012
  H     -0.231144    1.864487    1.086559
  H     -1.950951    1.648381    0.782468
  H      0.735890   -1.006684   -1.218795
  H      2.763678    0.252700   -0.666322
  H      1.606163    1.301235   -1.485709
  H      1.832770    1.424248    0.260250
  H      1.951377   -1.647617    0.782873
  H      0.231527   -1.864939    1.086240
  H      1.082733   -0.471926    1.763170

 Total Charge           Charge          ....    0
 Multiplicity           Mult            ....    1
 Number of Electrons    NEL             ....   50
 Basis Dimension        Dim             ....  184

ORBITAL ENERGIES
----------------

  NO   OCC          E(Eh)            E(eV)
   0   2.0000     -10.021177      -272.6901
   1   2.0000     -10.021062      -272.6869
   2   2.0000     -10.004238      -272.2292
   3   2.0000     -10.004235      -272.2291
   4   2.0000     -10.004119      -272.2259
   5   2.0000     -10.004116      -272.2258
   6   2.0000      -0.777563       -21.1586
   7   2.0000      -0.705914       -19.2089
   8   2.0000      -0.642607       -17.4862
   9   2.0000      -0.637580       -17.3494
  10   2.0000      -0.569109       -15.4863
  11   2.0000      -0.493135       -13.4189
  12   2.0000      -0.431588       -11.7441
  13   2.0000      -0.408924       -11.1274
  14   2.0000      -0.402967       -10.9653
  15   2.0000      -0.367019        -9.9871
  16   2.0000      -0.359697        -9.7878
  17   2.0000      -0.347716        -9.4618
  18   2.0000      -0.336265        -9.1502
  19   2.0000      -0.332938        -9.0597
  20   2.0000      -0.306568        -8.3421
  21   2.0000      -0.305624        -8.3164
  22   2.0000      -0.274365        -7.4658
  23   2.0000      -0.272646        -7.4191
  24   2.0000      -0.266987        -7.2651
  25   0.0000       0.088015         2.3950
  26   0.0000       0.125691         3.4202
  27   0.0000       0.125941         3.4270
  28   0.0000       0.133176         3.6239
  29   0.0000       0.138793         3.7768

MULLIKEN ATOMIC CHARGES
-----------------------
   0 C :   -0.552722
   1 C :   -0.010726
   2 C :   -0.553181
   3 C :   -0.010808
   4 C :   -0.552694
   5 C :   -0.553164
   6 H :    0.164724
   7 H :    0.157176
   8 H :    0.156531
   9 H :    0.153317
  10 H :    0.165152
  11 H :    0.163138
  12 H :    0.156618
  13 H :    0.153311
  14 H :    0.157178
  15 H :    0.156533
  16 H :    0.164705
  17 H :    0.156603
  18 H :    0.163143
  19 H :    0.165168
Sum of atomic charges:    0.0000000

LOEWDIN ATOMIC CHARGES
----------------------
   0 C :   -0.425416
   1 C :   -0.241898
   2 C :   -0.424116
   3 C :   -0.241901
   4 C :   -0.425420
   5 C :   -0.424109
   6 H :    0.154801
   7 H :    0.154952
   8 H :    0.154866
   9 H :    0.158512
  10 H :    0.156093
  11 H :    0.156326
  12 H :    0.155882
  13 H :    0.158512
  14 H :    0.154950
  15 H :    0.154864
  16 H :    0.154801
  17 H :    0.155881
  18 H :    0.156326
  19 H :    0.156096

  Mayer bond orders larger than 0.100000
B(  0-C ,  1-C ) :   0.9075 B(  0-C ,  6-H ) :   0.9847 B(  0-C ,  7-H ) :   0.9736
B(  0-C ,  8-H ) :   0.9766 B(  1-C ,  2-C ) :   0.8727 B(  1-C ,  3-C ) :   0.8787
B(  1-C ,  9-H ) :   0.9764 B(  2-C , 10-H ) :   0.9767 B(  2-C , 11-H ) :   0.9771
B(  2-C , 12-H ) :   0.9678 B(  3-C ,  4-C ) :   0.9075 B(  3-C ,  5-C ) :   0.8727
B(  3-C , 13-H ) :   0.9764 B(  4-C , 14-H ) :   0.9736 B(  4-C , 15-H ) :   0.9766
B(  4-C , 16-H ) :   0.9847 B(  5-C , 17-H ) :   0.9678 B(  5-C , 18-H ) :   0.9771
B(  5-C , 19-H ) :   0.9767

Dispersion correction           -0.005319883
FINAL SINGLE POINT ENERGY      -236.985094642486

DIPOLE MOMENT
-------------

Method             : SCF
Type of density    : Electron Density
Multiplicity       :   1
Irrep              :   0
Energy             :  -236.9895850004758699 Eh
Relativity type    :
Basis              : AO
                                X                 Y                 Z
Electronic contribution:     -0.000052002      -0.000060146      -1.041836512
Nuclear contribution   :      0.000046193       0.000094809       0.978765606
                        -----------------------------------------
Total Dipole Moment    :     -0.000005809       0.000034663      -0.063070906
                        -----------------------------------------
Magnitude (a.u.)       :      0.063070916
Magnitude (Debye)      :      0.160313527

Rotational constants in cm-1:             0.143762             0.083985             0.076578
Rotational constants in MHz :          4309.881459          2517.809880          2295.738146

                             ****ORCA TERMINATED NORMALLY****
TOTAL RUN TIME: 0 days 0 hours 0 minutes 21 seconds 404 msec
