                         Program Version 6.0.0  -   RELEASE  -
|  1> ! r2scan-3c def2/J RI DEFGRID2 scfconv6 printgap
|  2> %output
|  3>     printlevel normal
|  4> end
|  5> * xyz 0 1
|  6> C -3.430589133 -1.1195620326 0.5799296913
|  7> C -2.1971640761 -1.2372430188 -0.3161994051
|  8> C -1.2228172536 -0.0961302438 -0.1580925534
|  9> C -1.6992471393 1.1895259726 -0.0715196612
| 10> C -0.8490091825 2.2898185927 0.0936834511
| 11> C 0.5005830865 2.1052683278 0.1734220641
| 12> C 1.0465186636 0.8102704611 0.065432593
| 13> C 0.1853091509 -0.3095993176 -0.1140490347
| 14> C 0.7918584079 -1.578922296 -0.2522670757
| 15> C 2.1489772747 -1.73518046 -0.1978231903
| 16> C 2.988143408 -0.6295920845 -0.0018844978
| 17> C 2.4430587587 0.615597587 0.1239012559
| 18> H -4.0121825616 -2.0366445715 0.5232011979
| 19> H -4.0735249617 -0.2975665095 0.2789299557
| 20> H -3.1310815741 -0.9633872597 1.6137337485
| 21> H -2.515547901 -1.2833186185 -1.3621029775
| 22> H -1.7085558646 -2.1809289692 -0.0814526075
| 23> H -2.7608242277 1.3725988141 -0.1312669347
| 24> H -1.2736722227 3.2805541092 0.1614872937
| 25> H 1.1697293382 2.9422587255 0.3109326463
| 26> H 0.1809018241 -2.4522993017 -0.4158319072
| 27> H 2.583540783 -2.7177833863 -0.308105343
| 28> H 4.057764734 -0.7700553243 0.0429507057
| 29> H 3.0746566934 1.4808508711 0.2668460616
| 30> *
| 31>
| 32>                          ****END OF INPUT****

CARTESIAN COORDINATES (ANGSTROEM)
---------------------------------
  C     -3.430589   -1.119562    0.579930
  C     -2.197164   -1.237243   -0.316199
  C     -1.222817   -0.096130   -0.158093
  C     -1.699247    1.189526   -0.071520
  C     -0.849009    2.289819    0.093683
  C      0.500583    2.105268    0.173422
  C      1.046519    0.810270    0.065433
  C      0.185309   -0.309599   -0.114049
  C      0.791858   -1.578922   -0.252267
  C      2.148977   -1.735180   -0.197823
  C      2.988143   -0.629592   -0.001884
  C      2.443059    0.615598    0.123901
  H     -4.012183   -2.036645    0.523201
  H     -4.073525   -0.297567    0.278930
  H     -3.131082   -0.963387    1.613734
  H     -2.515548   -1.283319   -1.362103
  H     -1.708556   -2.180929   -0.081453
  H     -2.760824    1.372599   -0.131267
  H     -1.273672    3.280554    0.161487
  H      1.169729    2.942259    0.310933
  H      0.180902   -2.452299   -0.415832
  H      2.583541   -2.717783   -0.308105
  H      4.057765   -0.770055    0.042951
  H      3.074657    1.480851    0.266846

 Total Charge           Charge          ....    0
 Multiplicity           Mult            ....    1
 Number of Electrons    NEL             ....   84
 Basis Dimension        Dim             ....  288

ORBITAL ENERGIES
----------------

  NO   OCC          E(Eh)            E(eV)
   0   2.0000     -10.044997      -273.3383
   1   2.0000     -10.044245      -273.3178
   2   2.0000     -10.043189      -273.2891
   3   2.0000     -10.035800      -273.0880
   4   2.0000     -10.034824      -273.0614
   5   2.0000     -10.034742      -273.0592
   6   2.0000     -10.034268      -273.0463
   7   2.0000     -10.033909      -273.0365
   8   2.0000     -10.032997      -273.0117
   9   2.0000     -10.031508      -272.9712
  10   2.0000     -10.029745      -272.9232
  11   2.0000     -10.022764      -272.7333
  12   2.0000      -0.846274       -23.0283
  13   2.0000      -0.795597       -21.6493
  14   2.0000      -0.763545       -20.7771
  15   2.0000      -0.720946       -19.6179
  16   2.0000      -0.710815       -19.3423
  17   2.0000      -0.679346       -18.4859
  18   2.0000      -0.609579       -16.5875
  19   2.0000      -0.588718       -16.0198
  20   2.0000      -0.581429       -15.8215
  21   2.0000      -0.538937       -14.6652
  22   2.0000      -0.485708       -13.2168
  23   2.0000      -0.475010       -12.9257
  24   2.0000      -0.463937       -12.6244
  25   2.0000      -0.427628       -11.6364
  26   2.0000      -0.416842       -11.3428
  27   2.0000      -0.402731       -10.9589
  28   2.0000      -0.395185       -10.7535
  29   2.0000      -0.385567       -10.4918
  30   2.0000      -0.370934       -10.0936
  31   2.0000      -0.368171       -10.0185
  32   2.0000      -0.348919        -9.4946
  33   2.0000      -0.340489        -9.2652
  34   2.0000      -0.330490        -8.9931
  35   2.0000      -0.322711        -8.7814
  36   2.0000      -0.304522        -8.2865
  37   2.0000      -0.298758        -8.1296
  38   2.0000      -0.289855        -7.8873
  39   2.0000      -0.260100        -7.0777
  40   2.0000      -0.230781        -6.2799
  41   2.0000      -0.198062        -5.3895
  42   0.0000      -0.064745        -1.7618
  43   0.0000      -0.035160        -0.9567
  44   0.0000      -0.000170        -0.0046
  45   0.0000       0.065096         1.7713
  46   0.0000       0.080782         2.1982

MULLIKEN ATOMIC CHARGES
-----------------------
   0 C :   -0.474316
   1 C :   -0.295640
   2 C :    0.089013
   3 C :   -0.188921
   4 C :   -0.173710
   5 C :   -0.256991
   6 C :    0.166446
   7 C :    0.211467
   8 C :   -0.291637
   9 C :   -0.148843
  10 C :   -0.160105
  11 C :   -0.214110
  12 H :    0.149410
  13 H :    0.140544
  14 H :    0.162570
  15 H :    0.169653
  16 H :    0.129728
  17 H :    0.137718
  18 H :    0.143261
  19 H :    0.142495
  20 H :    0.129835
  21 H :    0.144374
  22 H :    0.145040
  23 H :    0.142720
Sum of atomic charges:   -0.0000000

LOEWDIN ATOMIC CHARGES
----------------------
   0 C :   -0.411108
   1 C :   -0.283572
   2 C :   -0.069051
   3 C :   -0.160022
   4 C :   -0.160506
   5 C :   -0.151394
   6 C :   -0.055238
   7 C :   -0.048005
   8 C :   -0.149014
   9 C :   -0.165313
  10 C :   -0.166143
  11 C :   -0.143650
  12 H :    0.151107
  13 H :    0.148132
  14 H :    0.157450
  15 H :    0.168904
  16 H :    0.158564
  17 H :    0.169326
  18 H :    0.167307
  19 H :    0.169845
  20 H :    0.167625
  21 H :    0.167035
  22 H :    0.167477
  23 H :    0.170244

  Mayer bond orders larger than 0.100000
B(  0-C ,  1-C ) :   0.8809 B(  0-C , 12-H ) :   0.9739 B(  0-C , 13-H ) :   0.9685
B(  0-C , 14-H ) :   0.9842 B(  1-C ,  2-C ) :   0.8384 B(  1-C , 15-H ) :   0.9707
B(  1-C , 16-H ) :   0.9964 B(  2-C ,  3-C ) :   1.4409 B(  2-C ,  7-C ) :   1.2565
B(  3-C ,  4-C ) :   1.3002 B(  3-C , 17-H ) :   0.9389 B(  4-C ,  5-C ) :   1.4992
B(  4-C , 18-H ) :   0.9530 B(  5-C ,  6-C ) :   1.1791 B(  5-C , 19-H ) :   0.9511
B(  6-C ,  7-C ) :   1.4500 B(  6-C , 11-C ) :   1.1696 B(  7-C ,  8-C ) :   1.2221
B(  8-C ,  9-C ) :   1.5215 B(  8-C , 20-H ) :   0.9487 B(  9-C , 10-C ) :   1.2758
B(  9-C , 21-H ) :   0.9490 B( 10-C , 11-C ) :   1.5122 B( 10-C , 22-H ) :   0.9496
B( 11-C , 23-H ) :   0.9503

Dispersion correction           -0.009575142
FINAL SINGLE POINT ENERGY      -464.380605656297

DIPOLE MOMENT
-------------

Method             : SCF
Type of density    : Electron Density
Multiplicity       :   1
Irrep              :   0
Energy             :  -464.3779386311480266 Eh
Relativity type    :
Basis              : AO
                                X                 Y                 Z
Electronic contribution:      7.735062817       3.283172374      -0.869373187
Nuclear contribution   :     -7.888873446      -3.401540202       0.843716060
                        -----------------------------------------
Total Dipole Moment    :     -0.153810629      -0.118367828      -0.025657128
                        -----------------------------------------
Magnitude (a.u.)       :      0.195772676
Magnitude (Debye)      :      0.497614596

Rotational constants in cm-1:             0.053844             0.026887             0.018381
Rotational constants in MHz :          1614.188934           806.057821           551.051291

                             ****ORCA TERMINATED NORMALLY****
TOTAL RUN TIME: 0 days 0 hours 0 minutes 32 seconds 458 msec
