                         Program Version 6.0.0  -   RELEASE  -
|  1> ! r2scan-3c def2/J RI DEFGRID2 scfconv6 printgap
|  2> %output
|  3>     printlevel normal
|  4> end
|  5> %cpcm
|  6>     smd true
|  7>     smdsolvent "water"
|  8> end
|  9> * xyz 0 1
| 10> C -3.430589133 -1.1195620326 0.5799296913
| 11> C -2.1971640761 -1.2372430188 -0.3161994051
| 12> C -1.2228172536 -0.0961302438 -0.1580925534
| 13> C -1.6992471393 1.1895259726 -0.0715196612
| 14> C -0.8490091825 2.2898185927 0.0936834511
| 15> C 0.5005830865 2.1052683278 0.1734220641
| 16> C 1.0465186636 0.8102704611 0.065432593
| 17> C 0.1853091509 -0.3095993176 -0.1140490347
| 18> C 0.7918584079 -1.578922296 -0.2522670757
| 19> C 2.1489772747 -1.73518046 -0.1978231903
| 20> C 2.988143408 -0.6295920845 -0.0018844978
| 21> C 2.4430587587 0.615597587 0.1239012559
| 22> H -4.0121825616 -2.0366445715 0.5232011979
| 23> H -4.0735249617 -0.2975665095 0.2789299557
| 24> H -3.1310815741 -0.9633872597 1.6137337485
| 25> H -2.515547901 -1.2833186185 -1.3621029775
| 26> H -1.7085558646 -2.1809289692 -0.0814526075
| 27> H -2.7608242277 1.3725988141 -0.1312669347
| 28> H -1.2736722227 3.2805541092 0.1614872937
| 29> H 1.1697293382 2.9422587255 0.3109326463
| 30> H 0.1809018241 -2.4522993017 -0.4158319072
| 31> H 2.583540783 -2.7177833863 -0.308105343
| 32> H 4.057764734 -0.7700553243 0.0429507057
| 33> H 3.0746566934 1.4808508711 0.2668460616
| 34> *
| 35>
| 36>                          ****END OF INPUT****

CARTESIAN COORDINATES (ANGSTROEM)
---------------------------------
  C     -3.430589   -1.119562    0.579930
  C     -2.197164   -1.237243   -0.316199
  C     -1.222817   -0.096130   -0.158093
  C     -1.699247    1.189526   -0.071520
  C     -0.849009    2.289819    0.093683
  C      0.500583    2.105268    0.173422
  C      1.046519    0.810270    0.065433
  C      0.185309   -0.309599   -0.114049
  C      0.791858   -1.578922   -0.252267
  C      2.148977   -1.735180   -0.197823
  C      2.988143   -0.629592   -0.001884
  C      2.443059    0.615598    0.123901
  H     -4.012183   -2.036645    0.523201
  H     -4.073525   -0.297567    0.278930
  H     -3.131082   -0.963387    1.613734
  H     -2.515548   -1.283319   -1.362103
  H     -1.708556   -2.180929   -0.081453
  H     -2.760824    1.372599   -0.131267
  H     -1.273672    3.280554    0.161487
  H      1.169729    2.942259    0.310933
  H      0.180902   -2.452299   -0.415832
  H      2.583541   -2.717783   -0.308105
  H      4.057765   -0.770055    0.042951
  H      3.074657    1.480851    0.266846

 Total Charge           Charge          ....    0
 Multiplicity           Mult            ....    1
 Number of Electrons    NEL             ....   84
 Basis Dimension        Dim             ....  288

ORBITAL ENERGIES
----------------

  NO   OCC          E(Eh)            E(eV)
   0   2.0000     -10.046242      -273.3721
   1   2.0000     -10.044782      -273.3324
   2   2.0000     -10.043789      -273.3054
   3   2.0000     -10.033868      -273.0354
   4   2.0000     -10.033689      -273.0306
   5   2.0000     -10.033004      -273.0119
   6   2.0000     -10.032621      -273.0015
   7   2.0000     -10.031854      -272.9806
   8   2.0000     -10.030558      -272.9453
   9   2.0000     -10.027825      -272.8710
  10   2.0000     -10.026654      -272.8391
  11   2.0000     -10.012564      -272.4557
  12   2.0000      -0.847865       -23.0716
  13   2.0000      -0.795659       -21.6510
  14   2.0000      -0.761138       -20.7116
  15   2.0000      -0.717840       -19.5334
  16   2.0000      -0.711055       -19.3488
  17   2.0000      -0.676845       -18.4179
  18   2.0000      -0.604866       -16.4592
  19   2.0000      -0.586380       -15.9562
  20   2.0000      -0.580226       -15.7888
  21   2.0000      -0.535353       -14.5677
  22   2.0000      -0.482496       -13.1294
  23   2.0000      -0.471951       -12.8424
  24   2.0000      -0.461741       -12.5646
  25   2.0000      -0.421865       -11.4795
  26   2.0000      -0.411894       -11.2082
  27   2.0000      -0.398009       -10.8304
  28   2.0000      -0.391120       -10.6429
  29   2.0000      -0.383985       -10.4488
  30   2.0000      -0.370393       -10.0789
  31   2.0000      -0.366519        -9.9735
  32   2.0000      -0.343263        -9.3407
  33   2.0000      -0.335451        -9.1281
  34   2.0000      -0.324140        -8.8203
  35   2.0000      -0.316444        -8.6109
  36   2.0000      -0.306635        -8.3440
  37   2.0000      -0.294566        -8.0156
  38   2.0000      -0.285646        -7.7728
  39   2.0000      -0.262412        -7.1406
  40   2.0000      -0.234444        -6.3795
  41   2.0000      -0.200357        -5.4520
  42   0.0000      -0.066772        -1.8170
  43   0.0000      -0.037944        -1.0325
  44   0.0000      -0.002206        -0.0600
  45   0.0000       0.064541         1.7563
  46   0.0000       0.090018         2.4495

MULLIKEN ATOMIC CHARGES
-----------------------
   0 C :   -0.514342
   1 C :   -0.285700
   2 C :    0.061149
   3 C :   -0.207939
   4 C :   -0.211522
   5 C :   -0.270981
   6 C :    0.112998
   7 C :    0.182995
   8 C :   -0.303192
   9 C :   -0.186229
  10 C :   -0.190301
  11 C :   -0.230265
  12 H :    0.163005
  13 H :    0.159757
  14 H :    0.166642
  15 H :    0.182299
  16 H :    0.152994
  17 H :    0.171025
  18 H :    0.174682
  19 H :    0.176131
  20 H :    0.164685
  21 H :    0.177108
  22 H :    0.177714
  23 H :    0.177287
Sum of atomic charges:   -0.0000000

LOEWDIN ATOMIC CHARGES
----------------------
   0 C :   -0.417426
   1 C :   -0.283562
   2 C :   -0.073168
   3 C :   -0.168803
   4 C :   -0.169524
   5 C :   -0.163041
   6 C :   -0.071024
   7 C :   -0.062808
   8 C :   -0.156320
   9 C :   -0.174107
  10 C :   -0.174397
  11 C :   -0.152645
  12 H :    0.155540
  13 H :    0.153779
  14 H :    0.157071
  15 H :    0.174547
  16 H :    0.165928
  17 H :    0.180954
  18 H :    0.178225
  19 H :    0.181589
  20 H :    0.180122
  21 H :    0.178195
  22 H :    0.178589
  23 H :    0.182285

  Mayer bond orders larger than 0.100000
B(  0-C ,  1-C ) :   0.8594 B(  0-C , 12-H ) :   0.9701 B(  0-C , 13-H ) :   0.9657
B(  0-C , 14-H ) :   0.9841 B(  1-C ,  2-C ) :   0.8593 B(  1-C , 15-H ) :   0.9593
B(  1-C , 16-H ) :   0.9999 B(  2-C ,  3-C ) :   1.4263 B(  2-C ,  7-C ) :   1.2181
B(  3-C ,  4-C ) :   1.2618 B(  3-C , 17-H ) :   0.9531 B(  4-C ,  5-C ) :   1.4586
B(  4-C , 18-H ) :   0.9707 B(  5-C ,  6-C ) :   1.1775 B(  5-C , 19-H ) :   0.9641
B(  6-C ,  7-C ) :   1.3619 B(  6-C , 11-C ) :   1.1729 B(  7-C ,  8-C ) :   1.2072
B(  8-C ,  9-C ) :   1.4886 B(  8-C , 20-H ) :   0.9631 B(  9-C , 10-C ) :   1.2379
B(  9-C , 21-H ) :   0.9613 B( 10-C , 11-C ) :   1.4749 B( 10-C , 22-H ) :   0.9617
B( 11-C , 23-H ) :   0.9588

Dispersion correction           -0.009575142
FINAL SINGLE POINT ENERGY      -464.383925263864

DIPOLE MOMENT
-------------

Method             : SCF
Type of density    : Electron Density
Multiplicity       :   1
Irrep              :   0
Energy             :  -464.3812582387147927 Eh
Relativity type    :
Basis              : AO
                                X                 Y                 Z
Electronic contribution:      7.664478319       3.214639276      -0.902827192
Nuclear contribution   :     -7.888873446      -3.401540202       0.843716060
                        -----------------------------------------
Total Dipole Moment    :     -0.224395127      -0.186900925      -0.059111132
                        -----------------------------------------
Magnitude (a.u.)       :      0.297958478
Magnitude (Debye)      :      0.757350265

Rotational constants in cm-1:             0.053844             0.026887             0.018381
Rotational constants in MHz :          1614.188934           806.057821           551.051291

                             ****ORCA TERMINATED NORMALLY****
TOTAL RUN TIME: 0 days 0 hours 0 minutes 33 seconds 736 msec
