                         Program Version 6.0.0  -   RELEASE  -
|  1> ! pbe def2-sv(p) def2/J RI DEFGRID1 loosescf d4 GCP(DFT/SV(P)) printgap
|  2> %output
|  3>     printlevel normal
|  4> end
|  5> * xyz 0 1
|  6> C 2.1722668213 0.0615602447 -0.0012562138
|  7> O 0.9893092205 -0.3354914038 -0.6995150234
|  8> S -0.40210718 -0.069715517 0.0377960464
|  9> O -0.2793904191 -0.4703412168 1.422978569
| 10> O -1.380546323 -0.7753869753 -0.749551827
| 11> C -0.6486045989 1.6895755726 -0.0805740473
| 12> H 2.4208642637 1.0903260445 -0.260776956
| 13> H 2.9657976 -0.6104135198 -0.320870431
| 14> H 1.9999352685 -0.0401276274 1.0704291208
| 15> H -1.6552377766 1.8855796296 0.2605255337
| 16> H 0.0784572863 2.1698974726 0.5584286506
| 17> H -0.5289328616 1.9550734864 -1.1209030702
| 18> *
| 19>
| 20>                          ****END OF INPUT****

CARTESIAN COORDINATES (ANGSTROEM)
---------------------------------
  C      2.172267    0.061560   -0.001256
  O      0.989309   -0.335491   -0.699515
  S     -0.402107   -0.069716    0.037796
  O     -0.279390   -0.470341    1.422979
  O     -1.380546   -0.775387   -0.749552
  C     -0.648605    1.689576   -0.080574
  H      2.420864    1.090326   -0.260777
  H      2.965798   -0.610414   -0.320870
  H      1.999935   -0.040128    1.070429
  H     -1.655238    1.885580    0.260526
  H      0.078457    2.169897    0.558429
  H     -0.528933    1.955073   -1.120903

 Total Charge           Charge          ....    0
 Multiplicity           Mult            ....    1
 Number of Electrons    NEL             ....   58
 Basis Dimension        Dim             ....  100

ORBITAL ENERGIES
----------------

  NO   OCC          E(Eh)            E(eV)
   0   2.0000     -88.253780     -2401.5075
   1   2.0000     -18.810547      -511.8610
   2   2.0000     -18.743610      -510.0396
   3   2.0000     -18.739759      -509.9348
   4   2.0000      -9.957270      -270.9511
   5   2.0000      -9.934772      -270.3389
   6   2.0000      -7.867551      -214.0869
   7   2.0000      -5.896110      -160.4413
   8   2.0000      -5.892820      -160.3518
   9   2.0000      -5.891808      -160.3242
  10   2.0000      -1.055918       -28.7330
  11   2.0000      -0.951041       -25.8791
  12   2.0000      -0.906842       -24.6764
  13   2.0000      -0.719825       -19.5874
  14   2.0000      -0.668594       -18.1934
  15   2.0000      -0.548280       -14.9195
  16   2.0000      -0.492966       -13.4143
  17   2.0000      -0.451749       -12.2927
  18   2.0000      -0.448716       -12.2102
  19   2.0000      -0.424851       -11.5608
  20   2.0000      -0.412189       -11.2162
  21   2.0000      -0.410658       -11.1746
  22   2.0000      -0.375819       -10.2266
  23   2.0000      -0.335092        -9.1183
  24   2.0000      -0.302677        -8.2363
  25   2.0000      -0.282695        -7.6925
  26   2.0000      -0.270453        -7.3594
  27   2.0000      -0.264596        -7.2000
  28   2.0000      -0.246783        -6.7153
  29   0.0000       0.015987         0.4350
  30   0.0000       0.024540         0.6678
  31   0.0000       0.049536         1.3480
  32   0.0000       0.055670         1.5148
  33   0.0000       0.063197         1.7197

MULLIKEN ATOMIC CHARGES
-----------------------
   0 C :   -0.136913
   1 O :   -0.380790
   2 S :    0.754381
   3 O :   -0.405410
   4 O :   -0.391140
   5 C :   -0.318091
   6 H :    0.115482
   7 H :    0.141199
   8 H :    0.139531
   9 H :    0.174348
  10 H :    0.147732
  11 H :    0.159671
Sum of atomic charges:   -0.0000000

LOEWDIN ATOMIC CHARGES
----------------------
   0 C :   -0.230736
   1 O :   -0.284561
   2 S :    1.112931
   3 O :   -0.470725
   4 O :   -0.458303
   5 C :   -0.471548
   6 H :    0.109496
   7 H :    0.131232
   8 H :    0.118855
   9 H :    0.154846
  10 H :    0.141290
  11 H :    0.147222

  Mayer bond orders larger than 0.100000
B(  0-C ,  1-O ) :   0.9239 B(  0-C ,  6-H ) :   0.9509 B(  0-C ,  7-H ) :   0.9564
B(  0-C ,  8-H ) :   0.9300 B(  1-O ,  2-S ) :   0.9590 B(  2-S ,  3-O ) :   1.7364
B(  2-S ,  4-O ) :   1.7985 B(  2-S ,  5-C ) :   0.9190 B(  5-C ,  9-H ) :   0.9276
B(  5-C , 10-H ) :   0.9237 B(  5-C , 11-H ) :   0.9246

Dispersion correction           -0.010228508
FINAL SINGLE POINT ENERGY      -702.676472131146

DIPOLE MOMENT
-------------

Method             : SCF
Type of density    : Electron Density
Multiplicity       :   1
Irrep              :   0
Energy             :  -702.7263786815847197 Eh
Relativity type    :
Basis              : AO
                                X                 Y                 Z
Electronic contribution:     -3.948244123      -4.486929162      -0.267703006
Nuclear contribution   :      4.955973970       6.030092500       0.173811450
                        -----------------------------------------
Total Dipole Moment    :      1.007729846       1.543163338      -0.093891557
                        -----------------------------------------
Magnitude (a.u.)       :      1.845450665
Magnitude (Debye)      :      4.690762809

Rotational constants in cm-1:             0.145929             0.089439             0.084552
Rotational constants in MHz :          4374.832503          2681.303726          2534.813665

                             ****ORCA TERMINATED NORMALLY****
TOTAL RUN TIME: 0 days 0 hours 0 minutes 5 seconds 711 msec
