                         Program Version 6.0.0  -   RELEASE  -
|  1> ! pbe def2-sv(p) def2/J RI DEFGRID1 loosescf d4 GCP(DFT/SV(P)) printgap
|  2> %output
|  3>     printlevel normal
|  4> end
|  5> * xyz 0 1
|  6> C -2.3520659081 -0.9789079792 0.3978111537
|  7> C -1.0500300916 -0.2793862959 0.8163402222
|  8> H -1.2097599671 0.1404722312 1.8194369848
|  9> C -0.6812988256 0.8587637365 -0.144727873
| 10> H -0.7578589774 0.5168371619 -1.1814613012
| 11> C 0.7615214001 1.3159716251 0.1247087904
| 12> H 0.820424389 1.689701978 1.1635823125
| 13> C 1.7590359203 0.1480112502 -0.0198933255
| 14> H 2.2659828412 0.2505219768 -0.9834655973
| 15> C 1.0138190757 -1.2049477274 -0.0092417891
| 16> H 1.7173618348 -1.9869099344 0.3256279432
| 17> O 0.0068002727 -1.2285541042 0.9652386455
| 18> O 0.5647929329 -1.4894143052 -1.2957552474
| 19> O 2.7652380675 0.1797331699 0.9568835863
| 20> O 1.131346631 2.3460554213 -0.7575119453
| 21> O -1.5734262449 1.9389760027 -0.0353162293
| 22> O -2.1646038968 -1.6362105981 -0.8365331701
| 23> H -3.1302068413 -0.211878342 0.31772085
| 24> H -2.618897712 -1.7024597907 1.1771753347
| 25> H -0.3022197141 -1.9378217325 -1.246978066
| 26> H 2.384041399 -0.0244546535 1.8243668014
| 27> H 0.3554198469 2.9092236844 -0.9149982148
| 28> H -1.5660945759 2.2842750282 0.8708463216
| 29> H -3.0059807535 -2.0086792438 -1.1334300574
| 30> *
| 31>
| 32>                          ****END OF INPUT****

CARTESIAN COORDINATES (ANGSTROEM)
---------------------------------
  C     -2.352066   -0.978908    0.397811
  C     -1.050030   -0.279386    0.816340
  H     -1.209760    0.140472    1.819437
  C     -0.681299    0.858764   -0.144728
  H     -0.757859    0.516837   -1.181461
  C      0.761521    1.315972    0.124709
  H      0.820424    1.689702    1.163582
  C      1.759036    0.148011   -0.019893
  H      2.265983    0.250522   -0.983466
  C      1.013819   -1.204948   -0.009242
  H      1.717362   -1.986910    0.325628
  O      0.006800   -1.228554    0.965239
  O      0.564793   -1.489414   -1.295755
  O      2.765238    0.179733    0.956884
  O      1.131347    2.346055   -0.757512
  O     -1.573426    1.938976   -0.035316
  O     -2.164604   -1.636211   -0.836533
  H     -3.130207   -0.211878    0.317721
  H     -2.618898   -1.702460    1.177175
  H     -0.302220   -1.937822   -1.246978
  H      2.384041   -0.024455    1.824367
  H      0.355420    2.909224   -0.914998
  H     -1.566095    2.284275    0.870846
  H     -3.005981   -2.008679   -1.133430

 Total Charge           Charge          ....    0
 Multiplicity           Mult            ....    1
 Number of Electrons    NEL             ....   96
 Basis Dimension        Dim             ....  192

ORBITAL ENERGIES
----------------

  NO   OCC          E(Eh)            E(eV)
   0   2.0000     -18.783330      -511.1204
   1   2.0000     -18.775797      -510.9154
   2   2.0000     -18.773361      -510.8491
   3   2.0000     -18.741017      -509.9690
   4   2.0000     -18.740751      -509.9618
   5   2.0000     -18.739718      -509.9337
   6   2.0000      -9.975852      -271.4567
   7   2.0000      -9.959377      -271.0084
   8   2.0000      -9.951060      -270.7821
   9   2.0000      -9.945388      -270.6278
  10   2.0000      -9.938445      -270.4388
  11   2.0000      -9.928206      -270.1602
  12   2.0000      -0.982272       -26.7290
  13   2.0000      -0.953020       -25.9330
  14   2.0000      -0.951063       -25.8797
  15   2.0000      -0.923454       -25.1285
  16   2.0000      -0.910302       -24.7706
  17   2.0000      -0.899847       -24.4861
  18   2.0000      -0.712462       -19.3871
  19   2.0000      -0.686139       -18.6708
  20   2.0000      -0.627080       -17.0637
  21   2.0000      -0.591288       -16.0898
  22   2.0000      -0.562453       -15.3051
  23   2.0000      -0.530956       -14.4481
  24   2.0000      -0.502429       -13.6718
  25   2.0000      -0.492886       -13.4121
  26   2.0000      -0.475555       -12.9405
  27   2.0000      -0.467225       -12.7139
  28   2.0000      -0.441801       -12.0220
  29   2.0000      -0.429907       -11.6984
  30   2.0000      -0.417052       -11.3486
  31   2.0000      -0.402063       -10.9407
  32   2.0000      -0.387550       -10.5458
  33   2.0000      -0.378853       -10.3091
  34   2.0000      -0.367072        -9.9885
  35   2.0000      -0.345603        -9.4043
  36   2.0000      -0.338862        -9.2209
  37   2.0000      -0.325522        -8.8579
  38   2.0000      -0.307474        -8.3668
  39   2.0000      -0.293540        -7.9876
  40   2.0000      -0.281123        -7.6497
  41   2.0000      -0.276283        -7.5180
  42   2.0000      -0.249684        -6.7943
  43   2.0000      -0.246831        -6.7166
  44   2.0000      -0.234212        -6.3732
  45   2.0000      -0.222767        -6.0618
  46   2.0000      -0.211796        -5.7633
  47   2.0000      -0.197419        -5.3720
  48   0.0000       0.001936         0.0527
  49   0.0000       0.011695         0.3182
  50   0.0000       0.031284         0.8513
  51   0.0000       0.059144         1.6094
  52   0.0000       0.067521         1.8373

MULLIKEN ATOMIC CHARGES
-----------------------
   0 C :    0.084386
   1 C :    0.014437
   2 H :    0.053292
   3 C :    0.022910
   4 H :    0.084580
   5 C :    0.066284
   6 H :    0.013407
   7 C :    0.127386
   8 H :    0.089656
   9 C :    0.120270
  10 H :    0.063507
  11 O :   -0.317199
  12 O :   -0.415928
  13 O :   -0.418381
  14 O :   -0.408693
  15 O :   -0.412076
  16 O :   -0.444099
  17 H :    0.079725
  18 H :    0.085722
  19 H :    0.306792
  20 H :    0.292190
  21 H :    0.295929
  22 H :    0.296848
  23 H :    0.319057
Sum of atomic charges:   -0.0000000

LOEWDIN ATOMIC CHARGES
----------------------
   0 C :   -0.127437
   1 C :   -0.067773
   2 H :    0.109767
   3 C :   -0.097661
   4 H :    0.127521
   5 C :   -0.069321
   6 H :    0.088350
   7 C :   -0.073952
   8 H :    0.133212
   9 C :   -0.008076
  10 H :    0.095478
  11 O :   -0.148033
  12 O :   -0.325100
  13 O :   -0.310020
  14 O :   -0.317941
  15 O :   -0.305530
  16 O :   -0.324330
  17 H :    0.108979
  18 H :    0.105151
  19 H :    0.271672
  20 H :    0.278052
  21 H :    0.277054
  22 H :    0.281715
  23 H :    0.298224

  Mayer bond orders larger than 0.100000
B(  0-C ,  1-C ) :   1.0670 B(  0-C , 16-O ) :   1.0479 B(  0-C , 17-H ) :   0.9050
B(  0-C , 18-H ) :   0.9121 B(  1-C ,  2-H ) :   0.8804 B(  1-C ,  3-C ) :   0.9726
B(  1-C , 11-O ) :   0.9916 B(  3-C ,  4-H ) :   0.8441 B(  3-C ,  5-C ) :   1.0706
B(  3-C , 15-O ) :   0.9970 B(  5-C ,  6-H ) :   0.8501 B(  5-C ,  7-C ) :   0.9704
B(  5-C , 14-O ) :   1.0974 B(  7-C ,  8-H ) :   0.8607 B(  7-C ,  9-C ) :   1.0039
B(  7-C , 13-O ) :   1.0382 B(  9-C , 10-H ) :   0.8984 B(  9-C , 11-O ) :   1.0440
B(  9-C , 12-O ) :   1.0931 B( 12-O , 19-H ) :   0.7855 B( 13-O , 20-H ) :   0.8487
B( 14-O , 21-H ) :   0.8307 B( 15-O , 22-H ) :   0.8439 B( 16-O , 19-H ) :   0.1070
B( 16-O , 23-H ) :   0.8396

Dispersion correction           -0.025087620
FINAL SINGLE POINT ENERGY      -685.692783565858

DIPOLE MOMENT
-------------

Method             : SCF
Type of density    : Electron Density
Multiplicity       :   1
Irrep              :   0
Energy             :  -685.8251652656031183 Eh
Relativity type    :
Basis              : AO
                                X                 Y                 Z
Electronic contribution:      2.630595768      -0.130268995      -0.941690785
Nuclear contribution   :     -4.724867312      -0.074514535       1.897528987
                        -----------------------------------------
Total Dipole Moment    :     -2.094271544      -0.204783530       0.955838203
                        -----------------------------------------
Magnitude (a.u.)       :      2.311176381
Magnitude (Debye)      :      5.874543503

Rotational constants in cm-1:             0.041638             0.028450             0.021219
Rotational constants in MHz :          1248.276799           852.913873           636.118711

                             ****ORCA TERMINATED NORMALLY****
TOTAL RUN TIME: 0 days 0 hours 0 minutes 12 seconds 212 msec
