                         Program Version 6.0.0  -   RELEASE  -
|  1> ! r2scan-3c def2/J RI DEFGRID2 scfconv6 printgap
|  2> %output
|  3>     printlevel normal
|  4> end
|  5> * xyz 0 1
|  6> C -2.5812615331 -0.6700958845 -0.2796644224
|  7> C -1.1870476045 -0.2882396879 0.2349359595
|  8> H -1.2022547266 -0.2388427694 1.3353766705
|  9> C -0.7135450114 1.0672538376 -0.3175529212
| 10> H -0.7109182167 1.0199830797 -1.4152378104
| 11> C 0.7267558207 1.3503029847 0.1443161815
| 12> H 0.7236249264 1.5121406263 1.2327648205
| 13> C 1.6464955753 0.1680135325 -0.161268958
| 14> H 1.7970366359 0.1139280402 -1.2485306596
| 15> C 1.0087091966 -1.1525385933 0.3078489943
| 16> H 0.9838730304 -1.1448929646 1.4184485906
| 17> O -0.302004156 -1.3161721311 -0.1794857906
| 18> O 1.7917765345 -2.1804625755 -0.1751813362
| 19> O 2.8628942881 0.3731123983 0.506443382
| 20> O 1.2382958942 2.4797669766 -0.5144433614
| 21> O -1.49494216 2.1416220279 0.1458799778
| 22> O -3.0529485888 -1.8612439697 0.2912781362
| 23> H -2.5410849871 -0.7526909914 -1.3730593563
| 24> H -3.2980063235 0.0992144127 0.0097214584
| 25> H 1.3942897782 -3.039578745 0.0352324061
| 26> H 3.4827260066 -0.3268732399 0.2517808131
| 27> H 0.6769380978 3.2392088265 -0.2948150736
| 28> H -2.3199109338 2.2036147037 -0.3540854597
| 29> H -2.4367564293 -2.5738483234 0.0706204922
| 30> *
| 31>
| 32>                          ****END OF INPUT****

CARTESIAN COORDINATES (ANGSTROEM)
---------------------------------
  C     -2.581262   -0.670096   -0.279664
  C     -1.187048   -0.288240    0.234936
  H     -1.202255   -0.238843    1.335377
  C     -0.713545    1.067254   -0.317553
  H     -0.710918    1.019983   -1.415238
  C      0.726756    1.350303    0.144316
  H      0.723625    1.512141    1.232765
  C      1.646496    0.168014   -0.161269
  H      1.797037    0.113928   -1.248531
  C      1.008709   -1.152539    0.307849
  H      0.983873   -1.144893    1.418449
  O     -0.302004   -1.316172   -0.179486
  O      1.791777   -2.180463   -0.175181
  O      2.862894    0.373112    0.506443
  O      1.238296    2.479767   -0.514443
  O     -1.494942    2.141622    0.145880
  O     -3.052949   -1.861244    0.291278
  H     -2.541085   -0.752691   -1.373059
  H     -3.298006    0.099214    0.009721
  H      1.394290   -3.039579    0.035232
  H      3.482726   -0.326873    0.251781
  H      0.676938    3.239209   -0.294815
  H     -2.319911    2.203615   -0.354085
  H     -2.436756   -2.573848    0.070620

 Total Charge           Charge          ....    0
 Multiplicity           Mult            ....    1
 Number of Electrons    NEL             ....   96
 Basis Dimension        Dim             ....  318

ORBITAL ENERGIES
----------------

  NO   OCC          E(Eh)            E(eV)
   0   2.0000     -18.978863      -516.4411
   1   2.0000     -18.978219      -516.4236
   2   2.0000     -18.976613      -516.3799
   3   2.0000     -18.958136      -515.8771
   4   2.0000     -18.954756      -515.7851
   5   2.0000     -18.951447      -515.6951
   6   2.0000     -10.143516      -276.0191
   7   2.0000     -10.098026      -274.7813
   8   2.0000     -10.097036      -274.7543
   9   2.0000     -10.091877      -274.6139
  10   2.0000     -10.091232      -274.5964
  11   2.0000     -10.090327      -274.5718
  12   2.0000      -1.059646       -28.8344
  13   2.0000      -1.019988       -27.7553
  14   2.0000      -1.005804       -27.3693
  15   2.0000      -0.997726       -27.1495
  16   2.0000      -0.988214       -26.8907
  17   2.0000      -0.981830       -26.7170
  18   2.0000      -0.756447       -20.5840
  19   2.0000      -0.740314       -20.1450
  20   2.0000      -0.665291       -18.1035
  21   2.0000      -0.623633       -16.9699
  22   2.0000      -0.595581       -16.2066
  23   2.0000      -0.556820       -15.1518
  24   2.0000      -0.526147       -14.3172
  25   2.0000      -0.517965       -14.0946
  26   2.0000      -0.501821       -13.6553
  27   2.0000      -0.498696       -13.5702
  28   2.0000      -0.480854       -13.0847
  29   2.0000      -0.471188       -12.8217
  30   2.0000      -0.434736       -11.8298
  31   2.0000      -0.415372       -11.3028
  32   2.0000      -0.406300       -11.0560
  33   2.0000      -0.397383       -10.8133
  34   2.0000      -0.390939       -10.6380
  35   2.0000      -0.381893       -10.3918
  36   2.0000      -0.358311        -9.7501
  37   2.0000      -0.342299        -9.3144
  38   2.0000      -0.329846        -8.9756
  39   2.0000      -0.321147        -8.7388
  40   2.0000      -0.307742        -8.3741
  41   2.0000      -0.296021        -8.0552
  42   2.0000      -0.289470        -7.8769
  43   2.0000      -0.271652        -7.3920
  44   2.0000      -0.255447        -6.9511
  45   2.0000      -0.252479        -6.8703
  46   2.0000      -0.241768        -6.5788
  47   2.0000      -0.224698        -6.1143
  48   0.0000       0.021843         0.5944
  49   0.0000       0.045365         1.2344
  50   0.0000       0.054980         1.4961
  51   0.0000       0.071559         1.9472
  52   0.0000       0.076583         2.0839

MULLIKEN ATOMIC CHARGES
-----------------------
   0 C :   -0.302118
   1 C :    0.037042
   2 H :    0.184727
   3 C :   -0.004358
   4 H :    0.163795
   5 C :   -0.081609
   6 H :    0.168639
   7 C :   -0.013623
   8 H :    0.174470
   9 C :   -0.031602
  10 H :    0.144272
  11 O :   -0.208933
  12 O :   -0.400077
  13 O :   -0.413282
  14 O :   -0.412495
  15 O :   -0.432864
  16 O :   -0.404186
  17 H :    0.147809
  18 H :    0.141192
  19 H :    0.306853
  20 H :    0.310411
  21 H :    0.310891
  22 H :    0.306349
  23 H :    0.308698
Sum of atomic charges:   -0.0000000

LOEWDIN ATOMIC CHARGES
----------------------
   0 C :    0.035361
   1 C :    0.104450
   2 H :    0.187958
   3 C :    0.106499
   4 H :    0.184896
   5 C :    0.120950
   6 H :    0.190085
   7 C :    0.129836
   8 H :    0.192323
   9 C :    0.297697
  10 H :    0.181646
  11 O :   -0.692564
  12 O :   -0.501062
  13 O :   -0.553486
  14 O :   -0.558121
  15 O :   -0.584741
  16 O :   -0.586206
  17 H :    0.168736
  18 H :    0.183131
  19 H :    0.283217
  20 H :    0.280701
  21 H :    0.280745
  22 H :    0.274250
  23 H :    0.273701

  Mayer bond orders larger than 0.100000
B(  0-C ,  1-C ) :   0.8624 B(  0-C , 16-O ) :   1.0177 B(  0-C , 17-H ) :   1.0019
B(  0-C , 18-H ) :   0.9761 B(  1-C ,  2-H ) :   0.9598 B(  1-C ,  3-C ) :   0.7834
B(  1-C , 11-O ) :   0.7763 B(  3-C ,  4-H ) :   0.9763 B(  3-C ,  5-C ) :   0.8552
B(  3-C , 15-O ) :   0.9091 B(  5-C ,  6-H ) :   1.0002 B(  5-C ,  7-C ) :   0.9427
B(  5-C , 14-O ) :   0.9310 B(  7-C ,  8-H ) :   0.9837 B(  7-C ,  9-C ) :   0.8023
B(  7-C , 13-O ) :   0.9290 B(  9-C , 10-H ) :   1.0073 B(  9-C , 11-O ) :   0.9267
B(  9-C , 12-O ) :   1.0611 B( 12-O , 19-H ) :   0.8820 B( 13-O , 20-H ) :   0.8837
B( 14-O , 21-H ) :   0.8782 B( 15-O , 22-H ) :   0.8924 B( 16-O , 23-H ) :   0.8783

Dispersion correction           -0.007936472
FINAL SINGLE POINT ENERGY      -687.074435155637

DIPOLE MOMENT
-------------

Method             : SCF
Type of density    : Electron Density
Multiplicity       :   1
Irrep              :   0
Energy             :  -687.0857431570557310 Eh
Relativity type    :
Basis              : AO
                                X                 Y                 Z
Electronic contribution:      2.681808577      -0.551576719       0.064583558
Nuclear contribution   :     -3.221650071       0.099093866      -0.310165452
                        -----------------------------------------
Total Dipole Moment    :     -0.539841494      -0.452482852      -0.245581894
                        -----------------------------------------
Magnitude (a.u.)       :      0.745975896
Magnitude (Debye)      :      1.896120040

Rotational constants in cm-1:             0.038985             0.026090             0.016412
Rotational constants in MHz :          1168.747480           782.164316           492.011432

                             ****ORCA TERMINATED NORMALLY****
TOTAL RUN TIME: 0 days 0 hours 0 minutes 47 seconds 925 msec
