                         Program Version 6.0.0  -   RELEASE  -
|  1> ! r2scan-3c def2/J RI DEFGRID2 scfconv6 printgap
|  2> %output
|  3>     printlevel normal
|  4> end
|  5> %cpcm
|  6>     smd true
|  7>     smdsolvent "water"
|  8> end
|  9> * xyz 0 1
| 10> C -2.5812615331 -0.6700958845 -0.2796644224
| 11> C -1.1870476045 -0.2882396879 0.2349359595
| 12> H -1.2022547266 -0.2388427694 1.3353766705
| 13> C -0.7135450114 1.0672538376 -0.3175529212
| 14> H -0.7109182167 1.0199830797 -1.4152378104
| 15> C 0.7267558207 1.3503029847 0.1443161815
| 16> H 0.7236249264 1.5121406263 1.2327648205
| 17> C 1.6464955753 0.1680135325 -0.161268958
| 18> H 1.7970366359 0.1139280402 -1.2485306596
| 19> C 1.0087091966 -1.1525385933 0.3078489943
| 20> H 0.9838730304 -1.1448929646 1.4184485906
| 21> O -0.302004156 -1.3161721311 -0.1794857906
| 22> O 1.7917765345 -2.1804625755 -0.1751813362
| 23> O 2.8628942881 0.3731123983 0.506443382
| 24> O 1.2382958942 2.4797669766 -0.5144433614
| 25> O -1.49494216 2.1416220279 0.1458799778
| 26> O -3.0529485888 -1.8612439697 0.2912781362
| 27> H -2.5410849871 -0.7526909914 -1.3730593563
| 28> H -3.2980063235 0.0992144127 0.0097214584
| 29> H 1.3942897782 -3.039578745 0.0352324061
| 30> H 3.4827260066 -0.3268732399 0.2517808131
| 31> H 0.6769380978 3.2392088265 -0.2948150736
| 32> H -2.3199109338 2.2036147037 -0.3540854597
| 33> H -2.4367564293 -2.5738483234 0.0706204922
| 34> *
| 35>
| 36>                          ****END OF INPUT****

CARTESIAN COORDINATES (ANGSTROEM)
---------------------------------
  C     -2.581262   -0.670096   -0.279664
  C     -1.187048   -0.288240    0.234936
  H     -1.202255   -0.238843    1.335377
  C     -0.713545    1.067254   -0.317553
  H     -0.710918    1.019983   -1.415238
  C      0.726756    1.350303    0.144316
  H      0.723625    1.512141    1.232765
  C      1.646496    0.168014   -0.161269
  H      1.797037    0.113928   -1.248531
  C      1.008709   -1.152539    0.307849
  H      0.983873   -1.144893    1.418449
  O     -0.302004   -1.316172   -0.179486
  O      1.791777   -2.180463   -0.175181
  O      2.862894    0.373112    0.506443
  O      1.238296    2.479767   -0.514443
  O     -1.494942    2.141622    0.145880
  O     -3.052949   -1.861244    0.291278
  H     -2.541085   -0.752691   -1.373059
  H     -3.298006    0.099214    0.009721
  H      1.394290   -3.039579    0.035232
  H      3.482726   -0.326873    0.251781
  H      0.676938    3.239209   -0.294815
  H     -2.319911    2.203615   -0.354085
  H     -2.436756   -2.573848    0.070620

 Total Charge           Charge          ....    0
 Multiplicity           Mult            ....    1
 Number of Electrons    NEL             ....   96
 Basis Dimension        Dim             ....  318

ORBITAL ENERGIES
----------------

  NO   OCC          E(Eh)            E(eV)
   0   2.0000     -18.973640      -516.2990
   1   2.0000     -18.969955      -516.1987
   2   2.0000     -18.963533      -516.0240
   3   2.0000     -18.962175      -515.9870
   4   2.0000     -18.958927      -515.8986
   5   2.0000     -18.956534      -515.8335
   6   2.0000     -10.136111      -275.8176
   7   2.0000     -10.088718      -274.5280
   8   2.0000     -10.088495      -274.5219
   9   2.0000     -10.087625      -274.4982
  10   2.0000     -10.086373      -274.4642
  11   2.0000     -10.077089      -274.2115
  12   2.0000      -1.053236       -28.6600
  13   2.0000      -1.013490       -27.5785
  14   2.0000      -1.005255       -27.3544
  15   2.0000      -0.995679       -27.0938
  16   2.0000      -0.986209       -26.8361
  17   2.0000      -0.981403       -26.7053
  18   2.0000      -0.749685       -20.4000
  19   2.0000      -0.733382       -19.9563
  20   2.0000      -0.656094       -17.8532
  21   2.0000      -0.617969       -16.8158
  22   2.0000      -0.588310       -16.0087
  23   2.0000      -0.549197       -14.9444
  24   2.0000      -0.520654       -14.1677
  25   2.0000      -0.508862       -13.8468
  26   2.0000      -0.497998       -13.5512
  27   2.0000      -0.491546       -13.3756
  28   2.0000      -0.474361       -12.9080
  29   2.0000      -0.464573       -12.6417
  30   2.0000      -0.430188       -11.7060
  31   2.0000      -0.409361       -11.1393
  32   2.0000      -0.401530       -10.9262
  33   2.0000      -0.394217       -10.7272
  34   2.0000      -0.389161       -10.5896
  35   2.0000      -0.376516       -10.2455
  36   2.0000      -0.358533        -9.7562
  37   2.0000      -0.338149        -9.2015
  38   2.0000      -0.331150        -9.0110
  39   2.0000      -0.318907        -8.6779
  40   2.0000      -0.305359        -8.3092
  41   2.0000      -0.297999        -8.1090
  42   2.0000      -0.284027        -7.7288
  43   2.0000      -0.269274        -7.3273
  44   2.0000      -0.256187        -6.9712
  45   2.0000      -0.254011        -6.9120
  46   2.0000      -0.242197        -6.5905
  47   2.0000      -0.223486        -6.0814
  48   0.0000       0.041493         1.1291
  49   0.0000       0.061412         1.6711
  50   0.0000       0.078538         2.1371
  51   0.0000       0.087870         2.3911
  52   0.0000       0.089493         2.4352

MULLIKEN ATOMIC CHARGES
-----------------------
   0 C :   -0.280249
   1 C :    0.005142
   2 H :    0.199668
   3 C :   -0.029031
   4 H :    0.188790
   5 C :   -0.037418
   6 H :    0.178698
   7 C :    0.011768
   8 H :    0.186240
   9 C :   -0.052684
  10 H :    0.168667
  11 O :   -0.243805
  12 O :   -0.454741
  13 O :   -0.489011
  14 O :   -0.489162
  15 O :   -0.489958
  16 O :   -0.483706
  17 H :    0.161169
  18 H :    0.170062
  19 H :    0.359076
  20 H :    0.354321
  21 H :    0.353127
  22 H :    0.358883
  23 H :    0.354155
Sum of atomic charges:   -0.0000000

LOEWDIN ATOMIC CHARGES
----------------------
   0 C :    0.038727
   1 C :    0.107862
   2 H :    0.194239
   3 C :    0.113005
   4 H :    0.193854
   5 C :    0.117255
   6 H :    0.196390
   7 C :    0.125060
   8 H :    0.197324
   9 C :    0.300820
  10 H :    0.191945
  11 O :   -0.702260
  12 O :   -0.517487
  13 O :   -0.587537
  14 O :   -0.595071
  15 O :   -0.598025
  16 O :   -0.623080
  17 H :    0.177292
  18 H :    0.194953
  19 H :    0.301818
  20 H :    0.295984
  21 H :    0.295141
  22 H :    0.294061
  23 H :    0.287732

  Mayer bond orders larger than 0.100000
B(  0-C ,  1-C ) :   0.9042 B(  0-C , 16-O ) :   0.9940 B(  0-C , 17-H ) :   0.9873
B(  0-C , 18-H ) :   0.9638 B(  1-C ,  2-H ) :   0.9520 B(  1-C ,  3-C ) :   0.8145
B(  1-C , 11-O ) :   0.7677 B(  3-C ,  4-H ) :   0.9789 B(  3-C ,  5-C ) :   0.8772
B(  3-C , 15-O ) :   0.9032 B(  5-C ,  6-H ) :   0.9706 B(  5-C ,  7-C ) :   0.9426
B(  5-C , 14-O ) :   0.9099 B(  7-C ,  8-H ) :   0.9616 B(  7-C ,  9-C ) :   0.8220
B(  7-C , 13-O ) :   0.8981 B(  9-C , 10-H ) :   1.0079 B(  9-C , 11-O ) :   0.9426
B(  9-C , 12-O ) :   1.0559 B( 12-O , 19-H ) :   0.8556 B( 13-O , 20-H ) :   0.8619
B( 14-O , 21-H ) :   0.8574 B( 15-O , 22-H ) :   0.8650 B( 16-O , 23-H ) :   0.8561

Dispersion correction           -0.007936472
FINAL SINGLE POINT ENERGY      -687.111821266305

DIPOLE MOMENT
-------------

Method             : SCF
Type of density    : Electron Density
Multiplicity       :   1
Irrep              :   0
Energy             :  -687.1231292677244937 Eh
Relativity type    :
Basis              : AO
                                X                 Y                 Z
Electronic contribution:      2.333232857      -0.737647408      -0.009486667
Nuclear contribution   :     -3.221650071       0.099093866      -0.310165452
                        -----------------------------------------
Total Dipole Moment    :     -0.888417214      -0.638553542      -0.319652119
                        -----------------------------------------
Magnitude (a.u.)       :      1.139830360
Magnitude (Debye)      :      2.897218529

Rotational constants in cm-1:             0.038985             0.026090             0.016412
Rotational constants in MHz :          1168.747480           782.164316           492.011432

                             ****ORCA TERMINATED NORMALLY****
TOTAL RUN TIME: 0 days 0 hours 0 minutes 56 seconds 881 msec
