                         Program Version 6.0.0  -   RELEASE  -
|  1> ! r2scan-3c def2/J RI DEFGRID2 scfconv6 printgap
|  2> %output
|  3>     printlevel normal
|  4> end
|  5> * xyz 0 1
|  6> C -3.6788480957 -0.1850549859 -0.0402799896
|  7> C -3.0390209353 -1.0425259552 0.8393225255
|  8> C -1.6603708737 -1.1513141786 0.8234192943
|  9> C -0.904474109 -0.3946641013 -0.0670440246
| 10> C -1.5546010519 0.4592772708 -0.9523334194
| 11> C -2.9339006469 0.5613088064 -0.9382193146
| 12> C 0.5641494995 -0.5248510053 -0.0790799027
| 13> C 1.1462518992 -1.7812047612 -0.2358242789
| 14> C 2.5193432855 -1.9366894142 -0.2624302589
| 15> C 3.3434318462 -0.8320468124 -0.1248048829
| 16> C 2.7902004068 0.4249367589 0.0475419533
| 17> C 1.4137947128 0.5682476816 0.0685676706
| 18> Cl 0.7510843537 2.1611222979 0.3400789511
| 19> H -4.7549136322 -0.0998691551 -0.0280564104
| 20> H -3.6157315755 -1.627717892 1.5397400986
| 21> H -1.158828602 -1.8128219351 1.5142734195
| 22> H -0.9770803342 1.0332417412 -1.6621304039
| 23> H -3.4285034498 1.2256523589 -1.631128207
| 24> H 0.4984371386 -2.6368059309 -0.3508972034
| 25> H 2.9463647033 -2.9187301295 -0.3907793405
| 26> H 4.415664685 -0.9438166498 -0.1454384318
| 27> H 3.4178489725 1.2930016501 0.1694867161
| 28> *
| 29>
| 30>                          ****END OF INPUT****

CARTESIAN COORDINATES (ANGSTROEM)
---------------------------------
  C     -3.678848   -0.185055   -0.040280
  C     -3.039021   -1.042526    0.839323
  C     -1.660371   -1.151314    0.823419
  C     -0.904474   -0.394664   -0.067044
  C     -1.554601    0.459277   -0.952333
  C     -2.933901    0.561309   -0.938219
  C      0.564149   -0.524851   -0.079080
  C      1.146252   -1.781205   -0.235824
  C      2.519343   -1.936689   -0.262430
  C      3.343432   -0.832047   -0.124805
  C      2.790200    0.424937    0.047542
  C      1.413795    0.568248    0.068568
  Cl     0.751084    2.161122    0.340079
  H     -4.754914   -0.099869   -0.028056
  H     -3.615732   -1.627718    1.539740
  H     -1.158829   -1.812822    1.514273
  H     -0.977080    1.033242   -1.662130
  H     -3.428503    1.225652   -1.631128
  H      0.498437   -2.636806   -0.350897
  H      2.946365   -2.918730   -0.390779
  H      4.415665   -0.943817   -0.145438
  H      3.417849    1.293002    0.169487

 Total Charge           Charge          ....    0
 Multiplicity           Mult            ....    1
 Number of Electrons    NEL             ....   98
 Basis Dimension        Dim             ....  300

ORBITAL ENERGIES
----------------

  NO   OCC          E(Eh)            E(eV)
   0   2.0000    -101.217088     -2754.2570
   1   2.0000     -10.102443      -274.9015
   2   2.0000     -10.060237      -273.7530
   3   2.0000     -10.050388      -273.4850
   4   2.0000     -10.049734      -273.4672
   5   2.0000     -10.047865      -273.4163
   6   2.0000     -10.047763      -273.4135
   7   2.0000     -10.044718      -273.3307
   8   2.0000     -10.038898      -273.1723
   9   2.0000     -10.037925      -273.1458
  10   2.0000     -10.037797      -273.1423
  11   2.0000     -10.037371      -273.1307
  12   2.0000     -10.036969      -273.1198
  13   2.0000      -9.372969      -255.0515
  14   2.0000      -7.119209      -193.7235
  15   2.0000      -7.109346      -193.4551
  16   2.0000      -7.108635      -193.4358
  17   2.0000      -0.869139       -23.6505
  18   2.0000      -0.830364       -22.5954
  19   2.0000      -0.806627       -21.9494
  20   2.0000      -0.757351       -20.6086
  21   2.0000      -0.720320       -19.6009
  22   2.0000      -0.712798       -19.3962
  23   2.0000      -0.695470       -18.9247
  24   2.0000      -0.604849       -16.4588
  25   2.0000      -0.589445       -16.0396
  26   2.0000      -0.571806       -15.5596
  27   2.0000      -0.554873       -15.0989
  28   2.0000      -0.506136       -13.7727
  29   2.0000      -0.477505       -12.9936
  30   2.0000      -0.451278       -12.2799
  31   2.0000      -0.442098       -12.0301
  32   2.0000      -0.424773       -11.5587
  33   2.0000      -0.420919       -11.4538
  34   2.0000      -0.405216       -11.0265
  35   2.0000      -0.397371       -10.8130
  36   2.0000      -0.394457       -10.7337
  37   2.0000      -0.372964       -10.1489
  38   2.0000      -0.351630        -9.5683
  39   2.0000      -0.347149        -9.4464
  40   2.0000      -0.333652        -9.0791
  41   2.0000      -0.319800        -8.7022
  42   2.0000      -0.315200        -8.5770
  43   2.0000      -0.309633        -8.4255
  44   2.0000      -0.283233        -7.7072
  45   2.0000      -0.259241        -7.0543
  46   2.0000      -0.239681        -6.5220
  47   2.0000      -0.236787        -6.4433
  48   2.0000      -0.220619        -6.0033
  49   0.0000      -0.058199        -1.5837
  50   0.0000      -0.045519        -1.2386
  51   0.0000      -0.033644        -0.9155
  52   0.0000      -0.018182        -0.4948
  53   0.0000       0.010231         0.2784

MULLIKEN ATOMIC CHARGES
-----------------------
   0 C :   -0.134713
   1 C :   -0.165434
   2 C :   -0.202724
   3 C :    0.132157
   4 C :   -0.177880
   5 C :   -0.168013
   6 C :    0.103194
   7 C :   -0.195792
   8 C :   -0.163390
   9 C :   -0.121577
  10 C :   -0.214919
  11 C :    0.074052
  12 Cl:   -0.135233
  13 H :    0.146969
  14 H :    0.145858
  15 H :    0.154774
  16 H :    0.158066
  17 H :    0.145980
  18 H :    0.158860
  19 H :    0.147916
  20 H :    0.150145
  21 H :    0.161703
Sum of atomic charges:   -0.0000000

LOEWDIN ATOMIC CHARGES
----------------------
   0 C :   -0.162943
   1 C :   -0.160825
   2 C :   -0.144903
   3 C :   -0.078560
   4 C :   -0.143901
   5 C :   -0.159767
   6 C :   -0.078090
   7 C :   -0.135339
   8 C :   -0.162425
   9 C :   -0.156109
  10 C :   -0.168620
  11 C :   -0.142307
  12 Cl:    0.143011
  13 H :    0.167276
  14 H :    0.167917
  15 H :    0.174601
  16 H :    0.175935
  17 H :    0.168289
  18 H :    0.178256
  19 H :    0.169670
  20 H :    0.170457
  21 H :    0.178376

  Mayer bond orders larger than 0.100000
B(  0-C ,  1-C ) :   1.4228 B(  0-C ,  5-C ) :   1.4139 B(  0-C , 13-H ) :   0.9461
B(  1-C ,  2-C ) :   1.4300 B(  1-C , 14-H ) :   0.9490 B(  2-C ,  3-C ) :   1.4105
B(  2-C , 15-H ) :   0.9437 B(  3-C ,  4-C ) :   1.4091 B(  3-C ,  6-C ) :   0.7956
B(  4-C ,  5-C ) :   1.4431 B(  4-C , 16-H ) :   0.9378 B(  5-C , 17-H ) :   0.9489
B(  6-C ,  7-C ) :   1.3925 B(  6-C , 11-C ) :   1.3774 B(  7-C ,  8-C ) :   1.4218
B(  7-C , 18-H ) :   0.9384 B(  8-C ,  9-C ) :   1.4078 B(  8-C , 19-H ) :   0.9476
B(  9-C , 10-C ) :   1.3923 B(  9-C , 20-H ) :   0.9485 B( 10-C , 11-C ) :   1.3564
B( 10-C , 21-H ) :   0.9428 B( 11-C , 12-Cl) :   1.0250

Dispersion correction           -0.009936407
FINAL SINGLE POINT ENERGY      -922.753232304750

DIPOLE MOMENT
-------------

Method             : SCF
Type of density    : Electron Density
Multiplicity       :   1
Irrep              :   0
Energy             :  -922.7489723173516722 Eh
Relativity type    :
Basis              : AO
                                X                 Y                 Z
Electronic contribution:      3.627934468       8.445585554       1.281630908
Nuclear contribution   :     -3.500593790      -8.987412840      -1.380490669
                        -----------------------------------------
Total Dipole Moment    :      0.127340678      -0.541827287      -0.098859761
                        -----------------------------------------
Magnitude (a.u.)       :      0.565301432
Magnitude (Debye)      :      1.436882050

Rotational constants in cm-1:             0.043749             0.017531             0.013619
Rotational constants in MHz :          1311.548750           525.558161           408.298259

                             ****ORCA TERMINATED NORMALLY****
TOTAL RUN TIME: 0 days 0 hours 0 minutes 44 seconds 579 msec
