                         Program Version 6.0.0  -   RELEASE  -
|  1> ! r2scan-3c def2/J RI DEFGRID2 scfconv6 printgap
|  2> %output
|  3>     printlevel normal
|  4> end
|  5> %cpcm
|  6>     smd true
|  7>     smdsolvent "water"
|  8> end
|  9> * xyz 0 1
| 10> C -3.6788480957 -0.1850549859 -0.0402799896
| 11> C -3.0390209353 -1.0425259552 0.8393225255
| 12> C -1.6603708737 -1.1513141786 0.8234192943
| 13> C -0.904474109 -0.3946641013 -0.0670440246
| 14> C -1.5546010519 0.4592772708 -0.9523334194
| 15> C -2.9339006469 0.5613088064 -0.9382193146
| 16> C 0.5641494995 -0.5248510053 -0.0790799027
| 17> C 1.1462518992 -1.7812047612 -0.2358242789
| 18> C 2.5193432855 -1.9366894142 -0.2624302589
| 19> C 3.3434318462 -0.8320468124 -0.1248048829
| 20> C 2.7902004068 0.4249367589 0.0475419533
| 21> C 1.4137947128 0.5682476816 0.0685676706
| 22> Cl 0.7510843537 2.1611222979 0.3400789511
| 23> H -4.7549136322 -0.0998691551 -0.0280564104
| 24> H -3.6157315755 -1.627717892 1.5397400986
| 25> H -1.158828602 -1.8128219351 1.5142734195
| 26> H -0.9770803342 1.0332417412 -1.6621304039
| 27> H -3.4285034498 1.2256523589 -1.631128207
| 28> H 0.4984371386 -2.6368059309 -0.3508972034
| 29> H 2.9463647033 -2.9187301295 -0.3907793405
| 30> H 4.415664685 -0.9438166498 -0.1454384318
| 31> H 3.4178489725 1.2930016501 0.1694867161
| 32> *
| 33>
| 34>                          ****END OF INPUT****

CARTESIAN COORDINATES (ANGSTROEM)
---------------------------------
  C     -3.678848   -0.185055   -0.040280
  C     -3.039021   -1.042526    0.839323
  C     -1.660371   -1.151314    0.823419
  C     -0.904474   -0.394664   -0.067044
  C     -1.554601    0.459277   -0.952333
  C     -2.933901    0.561309   -0.938219
  C      0.564149   -0.524851   -0.079080
  C      1.146252   -1.781205   -0.235824
  C      2.519343   -1.936689   -0.262430
  C      3.343432   -0.832047   -0.124805
  C      2.790200    0.424937    0.047542
  C      1.413795    0.568248    0.068568
  Cl     0.751084    2.161122    0.340079
  H     -4.754914   -0.099869   -0.028056
  H     -3.615732   -1.627718    1.539740
  H     -1.158829   -1.812822    1.514273
  H     -0.977080    1.033242   -1.662130
  H     -3.428503    1.225652   -1.631128
  H      0.498437   -2.636806   -0.350897
  H      2.946365   -2.918730   -0.390779
  H      4.415665   -0.943817   -0.145438
  H      3.417849    1.293002    0.169487

 Total Charge           Charge          ....    0
 Multiplicity           Mult            ....    1
 Number of Electrons    NEL             ....   98
 Basis Dimension        Dim             ....  300

ORBITAL ENERGIES
----------------

  NO   OCC          E(Eh)            E(eV)
   0   2.0000    -101.222062     -2754.3923
   1   2.0000     -10.102453      -274.9017
   2   2.0000     -10.059357      -273.7290
   3   2.0000     -10.050505      -273.4881
   4   2.0000     -10.045841      -273.3612
   5   2.0000     -10.043008      -273.2841
   6   2.0000     -10.041872      -273.2532
   7   2.0000     -10.038752      -273.1683
   8   2.0000     -10.036749      -273.1138
   9   2.0000     -10.036508      -273.1073
  10   2.0000     -10.035087      -273.0686
  11   2.0000     -10.034922      -273.0641
  12   2.0000     -10.034290      -273.0469
  13   2.0000      -9.378114      -255.1915
  14   2.0000      -7.124205      -193.8595
  15   2.0000      -7.114543      -193.5966
  16   2.0000      -7.113841      -193.5775
  17   2.0000      -0.869881       -23.6707
  18   2.0000      -0.830623       -22.6024
  19   2.0000      -0.807052       -21.9610
  20   2.0000      -0.755424       -20.5561
  21   2.0000      -0.718942       -19.5634
  22   2.0000      -0.710253       -19.3270
  23   2.0000      -0.693795       -18.8791
  24   2.0000      -0.601433       -16.3658
  25   2.0000      -0.586513       -15.9598
  26   2.0000      -0.568574       -15.4717
  27   2.0000      -0.551524       -15.0077
  28   2.0000      -0.502189       -13.6653
  29   2.0000      -0.472689       -12.8625
  30   2.0000      -0.448376       -12.2009
  31   2.0000      -0.436982       -11.8909
  32   2.0000      -0.423395       -11.5212
  33   2.0000      -0.416198       -11.3253
  34   2.0000      -0.400929       -10.9098
  35   2.0000      -0.392952       -10.6928
  36   2.0000      -0.390523       -10.6267
  37   2.0000      -0.373554       -10.1649
  38   2.0000      -0.352295        -9.5864
  39   2.0000      -0.342218        -9.3122
  40   2.0000      -0.328548        -8.9403
  41   2.0000      -0.318970        -8.6796
  42   2.0000      -0.311473        -8.4756
  43   2.0000      -0.309751        -8.4287
  44   2.0000      -0.287033        -7.8106
  45   2.0000      -0.259073        -7.0497
  46   2.0000      -0.241358        -6.5677
  47   2.0000      -0.237132        -6.4527
  48   2.0000      -0.221814        -6.0359
  49   0.0000      -0.057829        -1.5736
  50   0.0000      -0.044107        -1.2002
  51   0.0000      -0.034048        -0.9265
  52   0.0000      -0.017958        -0.4887
  53   0.0000       0.008234         0.2241

MULLIKEN ATOMIC CHARGES
-----------------------
   0 C :   -0.162857
   1 C :   -0.207874
   2 C :   -0.207795
   3 C :    0.095534
   4 C :   -0.203677
   5 C :   -0.210102
   6 C :    0.116261
   7 C :   -0.205734
   8 C :   -0.199908
   9 C :   -0.156057
  10 C :   -0.234577
  11 C :    0.070811
  12 Cl:   -0.155135
  13 H :    0.180773
  14 H :    0.179127
  15 H :    0.185510
  16 H :    0.185581
  17 H :    0.179174
  18 H :    0.188872
  19 H :    0.182418
  20 H :    0.186556
  21 H :    0.193100
Sum of atomic charges:   -0.0000000

LOEWDIN ATOMIC CHARGES
----------------------
   0 C :   -0.171823
   1 C :   -0.168900
   2 C :   -0.149480
   3 C :   -0.089618
   4 C :   -0.155828
   5 C :   -0.169806
   6 C :   -0.084614
   7 C :   -0.136743
   8 C :   -0.164549
   9 C :   -0.157956
  10 C :   -0.173280
  11 C :   -0.152739
  12 Cl:    0.126856
  13 H :    0.178364
  14 H :    0.179295
  15 H :    0.185272
  16 H :    0.183433
  17 H :    0.179347
  18 H :    0.188964
  19 H :    0.181870
  20 H :    0.183129
  21 H :    0.188808

  Mayer bond orders larger than 0.100000
B(  0-C ,  1-C ) :   1.3869 B(  0-C ,  5-C ) :   1.3800 B(  0-C , 13-H ) :   0.9520
B(  1-C ,  2-C ) :   1.4073 B(  1-C , 14-H ) :   0.9582 B(  2-C ,  3-C ) :   1.3895
B(  2-C , 15-H ) :   0.9473 B(  3-C ,  4-C ) :   1.3696 B(  3-C ,  6-C ) :   0.7822
B(  4-C ,  5-C ) :   1.4217 B(  4-C , 16-H ) :   0.9439 B(  5-C , 17-H ) :   0.9570
B(  6-C ,  7-C ) :   1.3755 B(  6-C , 11-C ) :   1.3465 B(  7-C ,  8-C ) :   1.4047
B(  7-C , 18-H ) :   0.9413 B(  8-C ,  9-C ) :   1.3779 B(  8-C , 19-H ) :   0.9556
B(  9-C , 10-C ) :   1.3807 B(  9-C , 20-H ) :   0.9528 B( 10-C , 11-C ) :   1.3223
B( 10-C , 21-H ) :   0.9466 B( 11-C , 12-Cl) :   1.0036

Dispersion correction           -0.009936407
FINAL SINGLE POINT ENERGY      -922.757148032637

DIPOLE MOMENT
-------------

Method             : SCF
Type of density    : Electron Density
Multiplicity       :   1
Irrep              :   0
Energy             :  -922.7528880452377962 Eh
Relativity type    :
Basis              : AO
                                X                 Y                 Z
Electronic contribution:      3.745849125       8.165547498       1.244317998
Nuclear contribution   :     -3.500593790      -8.987412840      -1.380490669
                        -----------------------------------------
Total Dipole Moment    :      0.245255335      -0.821865342      -0.136172671
                        -----------------------------------------
Magnitude (a.u.)       :      0.868421451
Magnitude (Debye)      :      2.207351908

Rotational constants in cm-1:             0.043749             0.017531             0.013619
Rotational constants in MHz :          1311.548750           525.558161           408.298259

                             ****ORCA TERMINATED NORMALLY****
TOTAL RUN TIME: 0 days 0 hours 0 minutes 54 seconds 731 msec
