                         Program Version 6.0.0  -   RELEASE  -
|  1> ! r2scan-3c def2/J RI DEFGRID2 scfconv6 printgap
|  2> %output
|  3>     printlevel normal
|  4> end
|  5> * xyz 0 1
|  6> C 1.9861527261 0.0249395393 -0.6500609588
|  7> C 1.2756937267 -0.3191418424 0.6542844835
|  8> C -0.2258446388 -0.5412461549 0.5087520303
|  9> H -0.656221691 -0.7688342675 1.4869526615
| 10> C -0.6092733944 -1.6095313125 -0.496754388
| 11> Cl -1.0175445453 1.0217379456 0.0286157556
| 12> H 1.5110215 0.8797112711 -1.1256166963
| 13> H 1.9680167405 -0.813892757 -1.3395385119
| 14> H 3.0232462346 0.2781382524 -0.4478501673
| 15> H 1.4374241835 0.4849053753 1.3749175889
| 16> H 1.7010181082 -1.233708302 1.0722859997
| 17> H -0.1209888851 -2.54263945 -0.2273025225
| 18> H -1.6852623387 -1.7625950057 -0.4941946925
| 19> H -0.3046860358 -1.3246648942 -1.4994669905
| 20> *
| 21>
| 22>                          ****END OF INPUT****

CARTESIAN COORDINATES (ANGSTROEM)
---------------------------------
  C      1.986153    0.024940   -0.650061
  C      1.275694   -0.319142    0.654284
  C     -0.225845   -0.541246    0.508752
  H     -0.656222   -0.768834    1.486953
  C     -0.609273   -1.609531   -0.496754
  Cl    -1.017545    1.021738    0.028616
  H      1.511022    0.879711   -1.125617
  H      1.968017   -0.813893   -1.339539
  H      3.023246    0.278138   -0.447850
  H      1.437424    0.484905    1.374918
  H      1.701018   -1.233708    1.072286
  H     -0.120989   -2.542639   -0.227303
  H     -1.685262   -1.762595   -0.494195
  H     -0.304686   -1.324665   -1.499467

 Total Charge           Charge          ....    0
 Multiplicity           Mult            ....    1
 Number of Electrons    NEL             ....   50
 Basis Dimension        Dim             ....  148

ORBITAL ENERGIES
----------------

  NO   OCC          E(Eh)            E(eV)
   0   2.0000    -101.192484     -2753.5875
   1   2.0000     -10.098097      -274.7832
   2   2.0000     -10.040873      -273.2260
   3   2.0000     -10.033394      -273.0225
   4   2.0000     -10.021800      -272.7071
   5   2.0000      -9.348675      -254.3904
   6   2.0000      -7.094608      -193.0541
   7   2.0000      -7.084908      -192.7902
   8   2.0000      -7.084805      -192.7873
   9   2.0000      -0.827302       -22.5120
  10   2.0000      -0.736918       -20.0526
  11   2.0000      -0.696888       -18.9633
  12   2.0000      -0.621366       -16.9082
  13   2.0000      -0.533614       -14.5204
  14   2.0000      -0.452991       -12.3265
  15   2.0000      -0.439089       -11.9482
  16   2.0000      -0.409852       -11.1526
  17   2.0000      -0.379168       -10.3177
  18   2.0000      -0.364093        -9.9075
  19   2.0000      -0.352350        -9.5879
  20   2.0000      -0.324081        -8.8187
  21   2.0000      -0.318299        -8.6613
  22   2.0000      -0.312794        -8.5116
  23   2.0000      -0.261948        -7.1280
  24   2.0000      -0.260258        -7.0820
  25   0.0000       0.008890         0.2419
  26   0.0000       0.083082         2.2608
  27   0.0000       0.110311         3.0017
  28   0.0000       0.130316         3.5461
  29   0.0000       0.131688         3.5834

MULLIKEN ATOMIC CHARGES
-----------------------
   0 C :   -0.502480
   1 C :   -0.232834
   2 C :    0.048759
   3 H :    0.169127
   4 C :   -0.491538
   5 Cl:   -0.231408
   6 H :    0.171876
   7 H :    0.149126
   8 H :    0.148124
   9 H :    0.156175
  10 H :    0.139416
  11 H :    0.145769
  12 H :    0.160704
  13 H :    0.169185
Sum of atomic charges:   -0.0000000

LOEWDIN ATOMIC CHARGES
----------------------
   0 C :   -0.429475
   1 C :   -0.326051
   2 C :   -0.255099
   3 H :    0.160907
   4 C :   -0.426278
   5 Cl:    0.005848
   6 H :    0.160708
   7 H :    0.150380
   8 H :    0.153701
   9 H :    0.162654
  10 H :    0.159902
  11 H :    0.159318
  12 H :    0.161259
  13 H :    0.162226

  Mayer bond orders larger than 0.100000
B(  0-C ,  1-C ) :   0.8957 B(  0-C ,  6-H ) :   0.9724 B(  0-C ,  7-H ) :   0.9784
B(  0-C ,  8-H ) :   0.9666 B(  1-C ,  2-C ) :   0.9269 B(  1-C ,  9-H ) :   0.9668
B(  1-C , 10-H ) :   0.9581 B(  2-C ,  3-H ) :   0.9520 B(  2-C ,  4-C ) :   0.9235
B(  2-C ,  5-Cl) :   0.9224 B(  4-C , 11-H ) :   0.9612 B(  4-C , 12-H ) :   0.9632
B(  4-C , 13-H ) :   0.9731

Dispersion correction           -0.003497470
FINAL SINGLE POINT ENERGY      -617.974116824858

DIPOLE MOMENT
-------------

Method             : SCF
Type of density    : Electron Density
Multiplicity       :   1
Irrep              :   0
Energy             :  -617.9793535151543438 Eh
Relativity type    :
Basis              : AO
                                X                 Y                 Z
Electronic contribution:     -7.363664328       7.004530581       1.339729314
Nuclear contribution   :      7.814299552      -7.754266806      -1.164039864
                        -----------------------------------------
Total Dipole Moment    :      0.450635223      -0.749736225       0.175689450
                        -----------------------------------------
Magnitude (a.u.)       :      0.892212583
Magnitude (Debye)      :      2.267824160

Rotational constants in cm-1:             0.161737             0.098776             0.076118
Rotational constants in MHz :          4848.764466          2961.216098          2281.956805

                             ****ORCA TERMINATED NORMALLY****
TOTAL RUN TIME: 0 days 0 hours 0 minutes 12 seconds 265 msec
