                         Program Version 6.0.0  -   RELEASE  -
|  1> ! r2scan-3c def2/J RI DEFGRID2 scfconv6 printgap
|  2> %output
|  3>     printlevel normal
|  4> end
|  5> %cpcm
|  6>     smd true
|  7>     smdsolvent "water"
|  8> end
|  9> * xyz 0 1
| 10> C 1.9861527261 0.0249395393 -0.6500609588
| 11> C 1.2756937267 -0.3191418424 0.6542844835
| 12> C -0.2258446388 -0.5412461549 0.5087520303
| 13> H -0.656221691 -0.7688342675 1.4869526615
| 14> C -0.6092733944 -1.6095313125 -0.496754388
| 15> Cl -1.0175445453 1.0217379456 0.0286157556
| 16> H 1.5110215 0.8797112711 -1.1256166963
| 17> H 1.9680167405 -0.813892757 -1.3395385119
| 18> H 3.0232462346 0.2781382524 -0.4478501673
| 19> H 1.4374241835 0.4849053753 1.3749175889
| 20> H 1.7010181082 -1.233708302 1.0722859997
| 21> H -0.1209888851 -2.54263945 -0.2273025225
| 22> H -1.6852623387 -1.7625950057 -0.4941946925
| 23> H -0.3046860358 -1.3246648942 -1.4994669905
| 24> *
| 25>
| 26>                          ****END OF INPUT****

CARTESIAN COORDINATES (ANGSTROEM)
---------------------------------
  C      1.986153    0.024940   -0.650061
  C      1.275694   -0.319142    0.654284
  C     -0.225845   -0.541246    0.508752
  H     -0.656222   -0.768834    1.486953
  C     -0.609273   -1.609531   -0.496754
  Cl    -1.017545    1.021738    0.028616
  H      1.511022    0.879711   -1.125617
  H      1.968017   -0.813893   -1.339539
  H      3.023246    0.278138   -0.447850
  H      1.437424    0.484905    1.374918
  H      1.701018   -1.233708    1.072286
  H     -0.120989   -2.542639   -0.227303
  H     -1.685262   -1.762595   -0.494195
  H     -0.304686   -1.324665   -1.499467

 Total Charge           Charge          ....    0
 Multiplicity           Mult            ....    1
 Number of Electrons    NEL             ....   50
 Basis Dimension        Dim             ....  148

ORBITAL ENERGIES
----------------

  NO   OCC          E(Eh)            E(eV)
   0   2.0000    -101.193285     -2753.6093
   1   2.0000     -10.089488      -274.5489
   2   2.0000     -10.028033      -272.8767
   3   2.0000     -10.019025      -272.6315
   4   2.0000     -10.010187      -272.3910
   5   2.0000      -9.349924      -254.4244
   6   2.0000      -7.095465      -193.0774
   7   2.0000      -7.086299      -192.8280
   8   2.0000      -7.086219      -192.8258
   9   2.0000      -0.822366       -22.3777
  10   2.0000      -0.729711       -19.8564
  11   2.0000      -0.685638       -18.6571
  12   2.0000      -0.609977       -16.5983
  13   2.0000      -0.522928       -14.2296
  14   2.0000      -0.441749       -12.0206
  15   2.0000      -0.428001       -11.6465
  16   2.0000      -0.399283       -10.8650
  17   2.0000      -0.368026       -10.0145
  18   2.0000      -0.351538        -9.5658
  19   2.0000      -0.342483        -9.3194
  20   2.0000      -0.313836        -8.5399
  21   2.0000      -0.308708        -8.4004
  22   2.0000      -0.300465        -8.1761
  23   2.0000      -0.263048        -7.1579
  24   2.0000      -0.260722        -7.0946
  25   0.0000       0.012328         0.3355
  26   0.0000       0.096802         2.6341
  27   0.0000       0.122833         3.3425
  28   0.0000       0.141869         3.8605
  29   0.0000       0.144346         3.9279

MULLIKEN ATOMIC CHARGES
-----------------------
   0 C :   -0.535538
   1 C :   -0.244307
   2 C :    0.058413
   3 H :    0.194243
   4 C :   -0.527317
   5 Cl:   -0.280125
   6 H :    0.163926
   7 H :    0.165400
   8 H :    0.161141
   9 H :    0.163804
  10 H :    0.163112
  11 H :    0.170237
  12 H :    0.169076
  13 H :    0.177935
Sum of atomic charges:   -0.0000000

LOEWDIN ATOMIC CHARGES
----------------------
   0 C :   -0.436890
   1 C :   -0.324913
   2 C :   -0.248237
   3 H :    0.170055
   4 C :   -0.429939
   5 Cl:   -0.026956
   6 H :    0.155839
   7 H :    0.155527
   8 H :    0.156978
   9 H :    0.163418
  10 H :    0.169777
  11 H :    0.169531
  12 H :    0.162387
  13 H :    0.163422

  Mayer bond orders larger than 0.100000
B(  0-C ,  1-C ) :   0.8827 B(  0-C ,  6-H ) :   0.9753 B(  0-C ,  7-H ) :   0.9742
B(  0-C ,  8-H ) :   0.9645 B(  1-C ,  2-C ) :   0.9218 B(  1-C ,  9-H ) :   0.9696
B(  1-C , 10-H ) :   0.9531 B(  2-C ,  3-H ) :   0.9467 B(  2-C ,  4-C ) :   0.9224
B(  2-C ,  5-Cl) :   0.8765 B(  4-C , 11-H ) :   0.9554 B(  4-C , 12-H ) :   0.9613
B(  4-C , 13-H ) :   0.9697

Dispersion correction           -0.003497470
FINAL SINGLE POINT ENERGY      -617.975437558024

DIPOLE MOMENT
-------------

Method             : SCF
Type of density    : Electron Density
Multiplicity       :   1
Irrep              :   0
Energy             :  -617.9806742483207245 Eh
Relativity type    :
Basis              : AO
                                X                 Y                 Z
Electronic contribution:     -7.223927760       6.709923598       1.446660998
Nuclear contribution   :      7.814299552      -7.754266806      -1.164039864
                        -----------------------------------------
Total Dipole Moment    :      0.590371792      -1.044343208       0.282621134
                        -----------------------------------------
Magnitude (a.u.)       :      1.232504075
Magnitude (Debye)      :      3.132776392

Rotational constants in cm-1:             0.161737             0.098776             0.076118
Rotational constants in MHz :          4848.764466          2961.216098          2281.956805

                             ****ORCA TERMINATED NORMALLY****
TOTAL RUN TIME: 0 days 0 hours 0 minutes 15 seconds 672 msec
