                         Program Version 6.0.0  -   RELEASE  -
|  1> ! pbe def2-sv(p) def2/J RI DEFGRID1 loosescf d4 GCP(DFT/SV(P)) printgap
|  2> %output
|  3>     printlevel normal
|  4> end
|  5> * xyz 0 1
|  6> C -2.5577301536 -0.6826641914 -0.3513016183
|  7> C -1.1735031452 -0.3176814964 0.1791272842
|  8> H -1.2269845904 -0.2598864347 1.2770768027
|  9> C -0.6912515578 1.0314283083 -0.370128139
| 10> H -0.6591229464 0.9625574449 -1.4711422374
| 11> C 0.7282549334 1.3234501297 0.1518113476
| 12> H 0.6909883998 1.4471278468 1.2406253443
| 13> C 1.6561632434 0.1512208112 -0.1757920892
| 14> H 1.7661605996 0.0626270784 -1.269163144
| 15> C 1.0194945384 -1.1603528565 0.3246582141
| 16> H 0.9638856114 -1.1235970267 1.4338347316
| 17> O -0.2716016512 -1.3380573517 -0.2019224304
| 18> O 1.815160233 -2.2052473655 -0.103375124
| 19> O 2.9005263001 0.3691255659 0.432050156
| 20> O 1.1859915961 2.5557149021 -0.3426908568
| 21> O -1.5845672474 2.0395473377 0.0210388474
| 22> O -3.1003674231 -1.6951049401 0.4632816463
| 23> H -2.4473548903 -1.0272712949 -1.3859462899
| 24> H -3.1743920834 0.2227305684 -0.3189832009
| 25> H 1.3377716645 -3.042572621 0.0049274433
| 26> H 3.4623414474 -0.4065729421 0.2824134653
| 27> H 1.5159134653 2.4521151806 -1.2471531671
| 28> H -1.1248873089 2.893107319 -0.0466834825
| 29> H -3.9693177242 -1.9466342465 0.1193058425
| 30> *
| 31>
| 32>                          ****END OF INPUT****

CARTESIAN COORDINATES (ANGSTROEM)
---------------------------------
  C     -2.557730   -0.682664   -0.351302
  C     -1.173503   -0.317681    0.179127
  H     -1.226985   -0.259886    1.277077
  C     -0.691252    1.031428   -0.370128
  H     -0.659123    0.962557   -1.471142
  C      0.728255    1.323450    0.151811
  H      0.690988    1.447128    1.240625
  C      1.656163    0.151221   -0.175792
  H      1.766161    0.062627   -1.269163
  C      1.019495   -1.160353    0.324658
  H      0.963886   -1.123597    1.433835
  O     -0.271602   -1.338057   -0.201922
  O      1.815160   -2.205247   -0.103375
  O      2.900526    0.369126    0.432050
  O      1.185992    2.555715   -0.342691
  O     -1.584567    2.039547    0.021039
  O     -3.100367   -1.695105    0.463282
  H     -2.447355   -1.027271   -1.385946
  H     -3.174392    0.222731   -0.318983
  H      1.337772   -3.042573    0.004927
  H      3.462341   -0.406573    0.282413
  H      1.515913    2.452115   -1.247153
  H     -1.124887    2.893107   -0.046683
  H     -3.969318   -1.946634    0.119306

 Total Charge           Charge          ....    0
 Multiplicity           Mult            ....    1
 Number of Electrons    NEL             ....   96
 Basis Dimension        Dim             ....  192

ORBITAL ENERGIES
----------------

  NO   OCC          E(Eh)            E(eV)
   0   2.0000     -18.770983      -510.7844
   1   2.0000     -18.768555      -510.7183
   2   2.0000     -18.760520      -510.4997
   3   2.0000     -18.751753      -510.2611
   4   2.0000     -18.750883      -510.2375
   5   2.0000     -18.744697      -510.0691
   6   2.0000      -9.987885      -271.7842
   7   2.0000      -9.945388      -270.6278
   8   2.0000      -9.944352      -270.5996
   9   2.0000      -9.943574      -270.5784
  10   2.0000      -9.941790      -270.5299
  11   2.0000      -9.928471      -270.1674
  12   2.0000      -0.987765       -26.8785
  13   2.0000      -0.949060       -25.8252
  14   2.0000      -0.934555       -25.4305
  15   2.0000      -0.922174       -25.0936
  16   2.0000      -0.917721       -24.9724
  17   2.0000      -0.913482       -24.8571
  18   2.0000      -0.705022       -19.1846
  19   2.0000      -0.694003       -18.8848
  20   2.0000      -0.615918       -16.7600
  21   2.0000      -0.584470       -15.9042
  22   2.0000      -0.557092       -15.1592
  23   2.0000      -0.533610       -14.5203
  24   2.0000      -0.508852       -13.8466
  25   2.0000      -0.489830       -13.3290
  26   2.0000      -0.472101       -12.8465
  27   2.0000      -0.463415       -12.6102
  28   2.0000      -0.439423       -11.9573
  29   2.0000      -0.437487       -11.9046
  30   2.0000      -0.416161       -11.3243
  31   2.0000      -0.407998       -11.1022
  32   2.0000      -0.386030       -10.5044
  33   2.0000      -0.377065       -10.2605
  34   2.0000      -0.360427        -9.8077
  35   2.0000      -0.349946        -9.5225
  36   2.0000      -0.322416        -8.7734
  37   2.0000      -0.319819        -8.7027
  38   2.0000      -0.302465        -8.2305
  39   2.0000      -0.297406        -8.0928
  40   2.0000      -0.281562        -7.6617
  41   2.0000      -0.269924        -7.3450
  42   2.0000      -0.255083        -6.9412
  43   2.0000      -0.239597        -6.5198
  44   2.0000      -0.236589        -6.4379
  45   2.0000      -0.218596        -5.9483
  46   2.0000      -0.211066        -5.7434
  47   2.0000      -0.206816        -5.6277
  48   0.0000       0.014912         0.4058
  49   0.0000       0.025810         0.7023
  50   0.0000       0.031235         0.8500
  51   0.0000       0.048658         1.3240
  52   0.0000       0.058796         1.5999

MULLIKEN ATOMIC CHARGES
-----------------------
   0 C :    0.074824
   1 C :    0.019277
   2 H :    0.062623
   3 C :    0.052981
   4 H :    0.036438
   5 C :    0.069065
   6 H :    0.070070
   7 C :    0.033621
   8 H :    0.042237
   9 C :    0.170955
  10 H :    0.042886
  11 O :   -0.304317
  12 O :   -0.391397
  13 O :   -0.406508
  14 O :   -0.410854
  15 O :   -0.414494
  16 O :   -0.433794
  17 H :    0.065280
  18 H :    0.090589
  19 H :    0.314299
  20 H :    0.308190
  21 H :    0.303138
  22 H :    0.305333
  23 H :    0.299559
Sum of atomic charges:    0.0000000

LOEWDIN ATOMIC CHARGES
----------------------
   0 C :   -0.125877
   1 C :   -0.055857
   2 H :    0.111971
   3 C :   -0.076249
   4 H :    0.094086
   5 C :   -0.076322
   6 H :    0.121734
   7 C :   -0.089700
   8 H :    0.098830
   9 C :   -0.004266
  10 H :    0.083444
  11 O :   -0.146843
  12 O :   -0.303309
  13 O :   -0.314812
  14 O :   -0.305917
  15 O :   -0.319659
  16 O :   -0.344267
  17 H :    0.100635
  18 H :    0.108834
  19 H :    0.295331
  20 H :    0.289125
  21 H :    0.288259
  22 H :    0.284625
  23 H :    0.286203

  Mayer bond orders larger than 0.100000
B(  0-C ,  1-C ) :   1.0702 B(  0-C , 16-O ) :   1.1080 B(  0-C , 17-H ) :   0.8987
B(  0-C , 18-H ) :   0.9121 B(  1-C ,  2-H ) :   0.8703 B(  1-C ,  3-C ) :   0.9946
B(  1-C , 11-O ) :   0.9919 B(  3-C ,  4-H ) :   0.8640 B(  3-C ,  5-C ) :   1.0023
B(  3-C , 15-O ) :   1.0749 B(  5-C ,  6-H ) :   0.8669 B(  5-C ,  7-C ) :   1.0115
B(  5-C , 14-O ) :   1.0496 B(  7-C ,  8-H ) :   0.8585 B(  7-C ,  9-C ) :   0.9918
B(  7-C , 13-O ) :   1.0947 B(  9-C , 10-H ) :   0.8848 B(  9-C , 11-O ) :   1.0223
B(  9-C , 12-O ) :   1.1603 B( 12-O , 19-H ) :   0.8359 B( 13-O , 20-H ) :   0.8390
B( 14-O , 21-H ) :   0.8461 B( 15-O , 22-H ) :   0.8262 B( 16-O , 23-H ) :   0.8520

Dispersion correction           -0.023516796
FINAL SINGLE POINT ENERGY      -685.697377159433

DIPOLE MOMENT
-------------

Method             : SCF
Type of density    : Electron Density
Multiplicity       :   1
Irrep              :   0
Energy             :  -685.8267148955725361 Eh
Relativity type    :
Basis              : AO
                                X                 Y                 Z
Electronic contribution:      2.468998900      -0.667369659       0.506492316
Nuclear contribution   :     -2.673854050       0.215219826      -1.291531810
                        -----------------------------------------
Total Dipole Moment    :     -0.204855150      -0.452149834      -0.785039494
                        -----------------------------------------
Magnitude (a.u.)       :      0.928812205
Magnitude (Debye)      :      2.360853005

Rotational constants in cm-1:             0.039582             0.025661             0.016346
Rotational constants in MHz :          1186.638053           769.310943           490.039511

                             ****ORCA TERMINATED NORMALLY****
TOTAL RUN TIME: 0 days 0 hours 0 minutes 11 seconds 951 msec
