                         Program Version 6.0.0  -   RELEASE  -
|  1> ! pbe def2-sv(p) def2/J RI DEFGRID1 loosescf d4 GCP(DFT/SV(P)) printgap
|  2> %output
|  3>     printlevel normal
|  4> end
|  5> * xyz 0 1
|  6> C -2.5639133031 -0.8910003298 0.2511256388
|  7> C -1.1384643662 -0.4484650862 0.6124395879
|  8> H -1.0470162116 -0.3916750174 1.70732268
|  9> C -0.8349976314 0.9408780823 0.0326347315
| 10> H -1.0829069802 0.9306281924 -1.041124612
| 11> C 0.6560476493 1.2850333636 0.2113136604
| 12> H 0.8507010395 1.4103107032 1.2844278642
| 13> C 1.5255360776 0.1443172844 -0.3375255634
| 14> H 1.3360122393 0.0264747325 -1.4115709743
| 15> C 1.1069695745 -1.1635958324 0.3753662627
| 16> H 1.249825109 -1.0530232757 1.4637505041
| 17> O -0.2538098462 -1.4265639366 0.0973036844
| 18> O 1.8575602284 -2.2552714675 0.0065911578
| 19> O 2.898660338 0.3987394986 -0.23507207
| 20> O 0.9572950226 2.5347579125 -0.3589302514
| 21> O -1.6434137408 1.8704337564 0.7091994054
| 22> O -2.7346352379 -1.0554759319 -1.1314482239
| 23> H -3.256249217 -0.1083800881 0.5643323024
| 24> H -2.7908134909 -1.8205773286 0.7851257402
| 25> H 1.7487702586 -2.4373706318 -0.9399419254
| 26> H 3.1544976979 0.5169890481 0.6905441662
| 27> H 1.0347076998 2.4531507226 -1.3204928205
| 28> H -1.3414130773 2.7630434545 0.4774743235
| 29> H -2.1442966309 -1.7641473111 -1.4261309716
| 30> *
| 31>
| 32>                          ****END OF INPUT****

CARTESIAN COORDINATES (ANGSTROEM)
---------------------------------
  C     -2.563913   -0.891000    0.251126
  C     -1.138464   -0.448465    0.612440
  H     -1.047016   -0.391675    1.707323
  C     -0.834998    0.940878    0.032635
  H     -1.082907    0.930628   -1.041125
  C      0.656048    1.285033    0.211314
  H      0.850701    1.410311    1.284428
  C      1.525536    0.144317   -0.337526
  H      1.336012    0.026475   -1.411571
  C      1.106970   -1.163596    0.375366
  H      1.249825   -1.053023    1.463751
  O     -0.253810   -1.426564    0.097304
  O      1.857560   -2.255271    0.006591
  O      2.898660    0.398739   -0.235072
  O      0.957295    2.534758   -0.358930
  O     -1.643414    1.870434    0.709199
  O     -2.734635   -1.055476   -1.131448
  H     -3.256249   -0.108380    0.564332
  H     -2.790813   -1.820577    0.785126
  H      1.748770   -2.437371   -0.939942
  H      3.154498    0.516989    0.690544
  H      1.034708    2.453151   -1.320493
  H     -1.341413    2.763043    0.477474
  H     -2.144297   -1.764147   -1.426131

 Total Charge           Charge          ....    0
 Multiplicity           Mult            ....    1
 Number of Electrons    NEL             ....   96
 Basis Dimension        Dim             ....  192

ORBITAL ENERGIES
----------------

  NO   OCC          E(Eh)            E(eV)
   0   2.0000     -18.780359      -511.0396
   1   2.0000     -18.766935      -510.6743
   2   2.0000     -18.764246      -510.6011
   3   2.0000     -18.759066      -510.4601
   4   2.0000     -18.753593      -510.3112
   5   2.0000     -18.749895      -510.2106
   6   2.0000      -9.995485      -271.9910
   7   2.0000      -9.950848      -270.7763
   8   2.0000      -9.949151      -270.7302
   9   2.0000      -9.946872      -270.6682
  10   2.0000      -9.942035      -270.5365
  11   2.0000      -9.930245      -270.2157
  12   2.0000      -0.990826       -26.9617
  13   2.0000      -0.952269       -25.9126
  14   2.0000      -0.940549       -25.5936
  15   2.0000      -0.928219       -25.2581
  16   2.0000      -0.921120       -25.0649
  17   2.0000      -0.916532       -24.9401
  18   2.0000      -0.706713       -19.2307
  19   2.0000      -0.694922       -18.9098
  20   2.0000      -0.618825       -16.8391
  21   2.0000      -0.591436       -16.0938
  22   2.0000      -0.576655       -15.6916
  23   2.0000      -0.545667       -14.8484
  24   2.0000      -0.506443       -13.7810
  25   2.0000      -0.495722       -13.4893
  26   2.0000      -0.462554       -12.5867
  27   2.0000      -0.459324       -12.4988
  28   2.0000      -0.450138       -12.2489
  29   2.0000      -0.444351       -12.0914
  30   2.0000      -0.431373       -11.7382
  31   2.0000      -0.416876       -11.3438
  32   2.0000      -0.377782       -10.2800
  33   2.0000      -0.375049       -10.2056
  34   2.0000      -0.367162        -9.9910
  35   2.0000      -0.355042        -9.6612
  36   2.0000      -0.327176        -8.9029
  37   2.0000      -0.317529        -8.6404
  38   2.0000      -0.307479        -8.3669
  39   2.0000      -0.294491        -8.0135
  40   2.0000      -0.291061        -7.9202
  41   2.0000      -0.279517        -7.6060
  42   2.0000      -0.258451        -7.0328
  43   2.0000      -0.255557        -6.9541
  44   2.0000      -0.242362        -6.5950
  45   2.0000      -0.222070        -6.0428
  46   2.0000      -0.215514        -5.8644
  47   2.0000      -0.207562        -5.6480
  48   0.0000       0.010780         0.2933
  49   0.0000       0.018391         0.5005
  50   0.0000       0.024849         0.6762
  51   0.0000       0.038529         1.0484
  52   0.0000       0.052879         1.4389

MULLIKEN ATOMIC CHARGES
-----------------------
   0 C :    0.091579
   1 C :   -0.007194
   2 H :    0.057911
   3 C :    0.061886
   4 H :    0.040399
   5 C :    0.053286
   6 H :    0.049683
   7 C :    0.037304
   8 H :    0.040666
   9 C :    0.177126
  10 H :    0.042771
  11 O :   -0.316157
  12 O :   -0.359477
  13 O :   -0.395860
  14 O :   -0.409185
  15 O :   -0.418150
  16 O :   -0.438580
  17 H :    0.099500
  18 H :    0.081418
  19 H :    0.304326
  20 H :    0.301350
  21 H :    0.303343
  22 H :    0.305364
  23 H :    0.296692
Sum of atomic charges:   -0.0000000

LOEWDIN ATOMIC CHARGES
----------------------
   0 C :   -0.122572
   1 C :   -0.071162
   2 H :    0.107976
   3 C :   -0.079451
   4 H :    0.098641
   5 C :   -0.091287
   6 H :    0.110592
   7 C :   -0.104646
   8 H :    0.108060
   9 C :   -0.005673
  10 H :    0.094652
  11 O :   -0.160248
  12 O :   -0.279064
  13 O :   -0.305132
  14 O :   -0.311134
  15 O :   -0.319830
  16 O :   -0.330449
  17 H :    0.125509
  18 H :    0.101776
  19 H :    0.290232
  20 H :    0.288838
  21 H :    0.288395
  22 H :    0.285799
  23 H :    0.280179

  Mayer bond orders larger than 0.100000
B(  0-C ,  1-C ) :   1.0410 B(  0-C , 16-O ) :   1.0617 B(  0-C , 17-H ) :   0.9132
B(  0-C , 18-H ) :   0.9184 B(  1-C ,  2-H ) :   0.8692 B(  1-C ,  3-C ) :   1.0007
B(  1-C , 11-O ) :   0.9912 B(  3-C ,  4-H ) :   0.8589 B(  3-C ,  5-C ) :   0.9998
B(  3-C , 15-O ) :   1.0632 B(  5-C ,  6-H ) :   0.8652 B(  5-C ,  7-C ) :   0.9925
B(  5-C , 14-O ) :   1.0593 B(  7-C ,  8-H ) :   0.8532 B(  7-C ,  9-C ) :   0.9601
B(  7-C , 13-O ) :   1.0765 B(  9-C , 10-H ) :   0.8785 B(  9-C , 11-O ) :   0.9927
B(  9-C , 12-O ) :   1.1769 B( 12-O , 19-H ) :   0.8421 B( 13-O , 20-H ) :   0.8483
B( 14-O , 21-H ) :   0.8467 B( 15-O , 22-H ) :   0.8316 B( 16-O , 23-H ) :   0.8448

Dispersion correction           -0.023938469
FINAL SINGLE POINT ENERGY      -685.698206876228

DIPOLE MOMENT
-------------

Method             : SCF
Type of density    : Electron Density
Multiplicity       :   1
Irrep              :   0
Energy             :  -685.8276330780902299 Eh
Relativity type    :
Basis              : AO
                                X                 Y                 Z
Electronic contribution:      2.505850892      -0.466039071      -0.975770960
Nuclear contribution   :     -2.130679373       0.493923285       0.768651603
                        -----------------------------------------
Total Dipole Moment    :      0.375171519       0.027884214      -0.207119356
                        -----------------------------------------
Magnitude (a.u.)       :      0.429452705
Magnitude (Debye)      :      1.091582026

Rotational constants in cm-1:             0.038546             0.027076             0.017786
Rotational constants in MHz :          1155.589293           811.732983           533.221142

                             ****ORCA TERMINATED NORMALLY****
TOTAL RUN TIME: 0 days 0 hours 0 minutes 12 seconds 34 msec
