                         Program Version 6.0.0  -   RELEASE  -
|  1> ! pbe def2-sv(p) def2/J RI DEFGRID1 loosescf d4 GCP(DFT/SV(P)) printgap
|  2> %output
|  3>     printlevel normal
|  4> end
|  5> * xyz 0 1
|  6> C -2.0395578317 -1.376008397 -0.1631521786
|  7> C -1.0232317904 -0.504401061 0.5991443369
|  8> H -1.4726475596 -0.1655217597 1.5418243669
|  9> C -0.6678500537 0.7528163018 -0.2174093709
| 10> H -0.6069927325 0.5081212422 -1.288030447
| 11> C 0.7108426183 1.2525942981 0.2198484682
| 12> H 0.711921575 1.3928642187 1.3103006467
| 13> C 1.7544113858 0.1843337637 -0.1435553263
| 14> H 1.9338993562 0.2525727435 -1.2256953606
| 15> C 1.2231482463 -1.2406570169 0.140788377
| 16> H 1.984866223 -1.7930966861 0.7110427465
| 17> O 0.112550986 -1.263065346 0.9987165027
| 18> O 0.9614327269 -1.8503791159 -1.0858681477
| 19> O 2.9199544528 0.4753538365 0.5855734721
| 20> O 0.9916534927 2.4602866829 -0.4363862618
| 21> O -1.6231557879 1.7581343884 0.0004373465
| 22> O -3.2561858387 -0.6964592819 -0.3583345626
| 23> H -2.1845924562 -2.314186169 0.3832288216
| 24> H -1.6506095627 -1.6006683553 -1.1593502961
| 25> H 0.8019786409 -2.7990164392 -0.9626532383
| 26> H 3.6728274426 -0.0171970268 0.2284376566
| 27> H 1.8333307424 2.8044637588 -0.1030313433
| 28> H -2.4578215629 1.4723971776 -0.405258462
| 29> H -3.7494352752 -0.6728672635 0.4739422388
| 30> *
| 31>
| 32>                          ****END OF INPUT****

CARTESIAN COORDINATES (ANGSTROEM)
---------------------------------
  C     -2.039558   -1.376008   -0.163152
  C     -1.023232   -0.504401    0.599144
  H     -1.472648   -0.165522    1.541824
  C     -0.667850    0.752816   -0.217409
  H     -0.606993    0.508121   -1.288030
  C      0.710843    1.252594    0.219848
  H      0.711922    1.392864    1.310301
  C      1.754411    0.184334   -0.143555
  H      1.933899    0.252573   -1.225695
  C      1.223148   -1.240657    0.140788
  H      1.984866   -1.793097    0.711043
  O      0.112551   -1.263065    0.998717
  O      0.961433   -1.850379   -1.085868
  O      2.919954    0.475354    0.585573
  O      0.991653    2.460287   -0.436386
  O     -1.623156    1.758134    0.000437
  O     -3.256186   -0.696459   -0.358335
  H     -2.184592   -2.314186    0.383229
  H     -1.650610   -1.600668   -1.159350
  H      0.801979   -2.799016   -0.962653
  H      3.672827   -0.017197    0.228438
  H      1.833331    2.804464   -0.103031
  H     -2.457822    1.472397   -0.405258
  H     -3.749435   -0.672867    0.473942

 Total Charge           Charge          ....    0
 Multiplicity           Mult            ....    1
 Number of Electrons    NEL             ....   96
 Basis Dimension        Dim             ....  192

ORBITAL ENERGIES
----------------

  NO   OCC          E(Eh)            E(eV)
   0   2.0000     -18.769110      -510.7335
   1   2.0000     -18.767270      -510.6834
   2   2.0000     -18.766604      -510.6652
   3   2.0000     -18.759664      -510.4764
   4   2.0000     -18.735974      -509.8318
   5   2.0000     -18.733427      -509.7625
   6   2.0000      -9.985862      -271.7291
   7   2.0000      -9.937944      -270.4252
   8   2.0000      -9.937333      -270.4086
   9   2.0000      -9.934398      -270.3287
  10   2.0000      -9.933823      -270.3131
  11   2.0000      -9.933193      -270.2959
  12   2.0000      -0.981633       -26.7116
  13   2.0000      -0.941431       -25.6176
  14   2.0000      -0.938593       -25.5404
  15   2.0000      -0.921845       -25.0847
  16   2.0000      -0.913570       -24.8595
  17   2.0000      -0.902894       -24.5690
  18   2.0000      -0.698508       -19.0074
  19   2.0000      -0.690714       -18.7953
  20   2.0000      -0.619957       -16.8699
  21   2.0000      -0.578949       -15.7540
  22   2.0000      -0.565770       -15.3954
  23   2.0000      -0.514871       -14.0103
  24   2.0000      -0.501432       -13.6447
  25   2.0000      -0.479454       -13.0466
  26   2.0000      -0.471055       -12.8181
  27   2.0000      -0.464958       -12.6521
  28   2.0000      -0.455062       -12.3829
  29   2.0000      -0.429622       -11.6906
  30   2.0000      -0.406446       -11.0600
  31   2.0000      -0.399601       -10.8737
  32   2.0000      -0.380083       -10.3426
  33   2.0000      -0.366813        -9.9815
  34   2.0000      -0.362559        -9.8657
  35   2.0000      -0.345967        -9.4142
  36   2.0000      -0.327124        -8.9015
  37   2.0000      -0.300768        -8.1843
  38   2.0000      -0.297702        -8.1009
  39   2.0000      -0.295100        -8.0301
  40   2.0000      -0.277190        -7.5427
  41   2.0000      -0.267338        -7.2746
  42   2.0000      -0.262501        -7.1430
  43   2.0000      -0.243565        -6.6277
  44   2.0000      -0.231188        -6.2910
  45   2.0000      -0.219553        -5.9743
  46   2.0000      -0.207169        -5.6374
  47   2.0000      -0.194540        -5.2937
  48   0.0000       0.012819         0.3488
  49   0.0000       0.018275         0.4973
  50   0.0000       0.022247         0.6054
  51   0.0000       0.052415         1.4263
  52   0.0000       0.055269         1.5039

MULLIKEN ATOMIC CHARGES
-----------------------
   0 C :    0.038345
   1 C :    0.037997
   2 H :    0.061501
   3 C :    0.020344
   4 H :    0.064913
   5 C :    0.085390
   6 H :    0.060319
   7 C :    0.034379
   8 H :    0.069626
   9 C :    0.180799
  10 H :    0.046360
  11 O :   -0.315898
  12 O :   -0.397144
  13 O :   -0.417146
  14 O :   -0.403690
  15 O :   -0.408301
  16 O :   -0.435050
  17 H :    0.079887
  18 H :    0.088149
  19 H :    0.305006
  20 H :    0.305394
  21 H :    0.300198
  22 H :    0.294170
  23 H :    0.304453
Sum of atomic charges:   -0.0000000

LOEWDIN ATOMIC CHARGES
----------------------
   0 C :   -0.139978
   1 C :   -0.078800
   2 H :    0.110863
   3 C :   -0.064444
   4 H :    0.107867
   5 C :   -0.058158
   6 H :    0.110103
   7 C :   -0.088861
   8 H :    0.110623
   9 C :   -0.011419
  10 H :    0.094081
  11 O :   -0.145393
  12 O :   -0.310401
  13 O :   -0.317902
  14 O :   -0.311789
  15 O :   -0.315588
  16 O :   -0.326431
  17 H :    0.097760
  18 H :    0.113346
  19 H :    0.286131
  20 H :    0.288502
  21 H :    0.286625
  22 H :    0.274586
  23 H :    0.288677

  Mayer bond orders larger than 0.100000
B(  0-C ,  1-C ) :   1.0449 B(  0-C , 16-O ) :   1.0452 B(  0-C , 17-H ) :   0.9242
B(  0-C , 18-H ) :   0.9093 B(  1-C ,  2-H ) :   0.8857 B(  1-C ,  3-C ) :   0.9676
B(  1-C , 11-O ) :   0.9679 B(  3-C ,  4-H ) :   0.8879 B(  3-C ,  5-C ) :   1.0189
B(  3-C , 15-O ) :   1.1073 B(  5-C ,  6-H ) :   0.8659 B(  5-C ,  7-C ) :   1.0365
B(  5-C , 14-O ) :   1.1088 B(  7-C ,  8-H ) :   0.8775 B(  7-C ,  9-C ) :   0.9721
B(  7-C , 13-O ) :   1.0827 B(  9-C , 10-H ) :   0.8947 B(  9-C , 11-O ) :   1.0894
B(  9-C , 12-O ) :   1.1015 B( 12-O , 19-H ) :   0.8362 B( 13-O , 20-H ) :   0.8478
B( 14-O , 21-H ) :   0.8453 B( 15-O , 22-H ) :   0.8253 B( 16-O , 23-H ) :   0.8461

Dispersion correction           -0.024463475
FINAL SINGLE POINT ENERGY      -685.690244012323

DIPOLE MOMENT
-------------

Method             : SCF
Type of density    : Electron Density
Multiplicity       :   1
Irrep              :   0
Energy             :  -685.8196870769056659 Eh
Relativity type    :
Basis              : AO
                                X                 Y                 Z
Electronic contribution:      1.462687024       1.408717041       0.669185158
Nuclear contribution   :     -1.108539365      -2.737746923      -0.469004914
                        -----------------------------------------
Total Dipole Moment    :      0.354147659      -1.329029882       0.200180244
                        -----------------------------------------
Magnitude (a.u.)       :      1.389896802
Magnitude (Debye)      :      3.532836913

Rotational constants in cm-1:             0.043527             0.026302             0.018620
Rotational constants in MHz :          1304.917783           788.526472           558.199495

                             ****ORCA TERMINATED NORMALLY****
TOTAL RUN TIME: 0 days 0 hours 0 minutes 12 seconds 77 msec
