                         Program Version 6.0.0  -   RELEASE  -
|  1> ! pbe def2-sv(p) def2/J RI DEFGRID1 loosescf d4 GCP(DFT/SV(P)) printgap
|  2> %output
|  3>     printlevel normal
|  4> end
|  5> * xyz 0 1
|  6> C -2.4244183653 -1.0808788633 -0.3492495602
|  7> C -1.0764140141 -0.5942055909 0.2014865278
|  8> H -1.1310659407 -0.5815258348 1.3014375846
|  9> C -0.7418863502 0.8239478593 -0.2865856318
| 10> H -0.7225886669 0.8258677639 -1.3884071794
| 11> C 0.6521526292 1.2293005813 0.2085442663
| 12> H 0.6415407668 1.2902447336 1.3084967926
| 13> C 1.673774456 0.1675899697 -0.2064835646
| 14> H 1.7441799576 0.1522160317 -1.3057298047
| 15> C 1.1967678795 -1.2173391489 0.2804116259
| 16> H 1.1908180908 -1.2163066185 1.3848066441
| 17> O -0.0838039937 -1.5064641442 -0.2235026572
| 18> O 2.0635203138 -2.2189805882 -0.118397683
| 19> O 2.914420903 0.5039321058 0.3614979313
| 20> O 0.9468250477 2.4895751645 -0.3419303351
| 21> O -1.7294508672 1.7039105851 0.1828326285
| 22> O -3.5140319201 -0.4958422562 0.3084865836
| 23> H -2.4975316412 -2.1579467297 -0.1845292099
| 24> H -2.4632013472 -0.8864743454 -1.4292714477
| 25> H 1.7955625872 -2.5390142876 -0.9943944176
| 26> H 3.5221964404 -0.2442885757 0.2600767877
| 27> H 1.858242293 2.7226748248 -0.1125481601
| 28> H -1.447893526 2.6109660917 -0.0134331642
| 29> H -3.3942254872 0.4686723355 0.3008937118
| 30> *
| 31>
| 32>                          ****END OF INPUT****

CARTESIAN COORDINATES (ANGSTROEM)
---------------------------------
  C     -2.424418   -1.080879   -0.349250
  C     -1.076414   -0.594206    0.201487
  H     -1.131066   -0.581526    1.301438
  C     -0.741886    0.823948   -0.286586
  H     -0.722589    0.825868   -1.388407
  C      0.652153    1.229301    0.208544
  H      0.641541    1.290245    1.308497
  C      1.673774    0.167590   -0.206484
  H      1.744180    0.152216   -1.305730
  C      1.196768   -1.217339    0.280412
  H      1.190818   -1.216307    1.384807
  O     -0.083804   -1.506464   -0.223503
  O      2.063520   -2.218981   -0.118398
  O      2.914421    0.503932    0.361498
  O      0.946825    2.489575   -0.341930
  O     -1.729451    1.703911    0.182833
  O     -3.514032   -0.495842    0.308487
  H     -2.497532   -2.157947   -0.184529
  H     -2.463201   -0.886474   -1.429271
  H      1.795563   -2.539014   -0.994394
  H      3.522196   -0.244289    0.260077
  H      1.858242    2.722675   -0.112548
  H     -1.447894    2.610966   -0.013433
  H     -3.394225    0.468672    0.300894

 Total Charge           Charge          ....    0
 Multiplicity           Mult            ....    1
 Number of Electrons    NEL             ....   96
 Basis Dimension        Dim             ....  192

ORBITAL ENERGIES
----------------

  NO   OCC          E(Eh)            E(eV)
   0   2.0000     -18.784267      -511.1459
   1   2.0000     -18.773510      -510.8532
   2   2.0000     -18.771952      -510.8108
   3   2.0000     -18.764912      -510.6192
   4   2.0000     -18.763558      -510.5824
   5   2.0000     -18.733299      -509.7590
   6   2.0000      -9.995486      -271.9910
   7   2.0000      -9.952167      -270.8122
   8   2.0000      -9.949836      -270.7488
   9   2.0000      -9.949367      -270.7360
  10   2.0000      -9.946362      -270.6543
  11   2.0000      -9.927714      -270.1468
  12   2.0000      -0.996745       -27.1228
  13   2.0000      -0.957986       -26.0681
  14   2.0000      -0.946244       -25.7486
  15   2.0000      -0.929219       -25.2853
  16   2.0000      -0.925456       -25.1829
  17   2.0000      -0.909769       -24.7561
  18   2.0000      -0.713082       -19.4039
  19   2.0000      -0.695612       -18.9286
  20   2.0000      -0.615486       -16.7482
  21   2.0000      -0.594474       -16.1764
  22   2.0000      -0.565683       -15.3930
  23   2.0000      -0.542434       -14.7604
  24   2.0000      -0.513061       -13.9611
  25   2.0000      -0.498875       -13.5751
  26   2.0000      -0.474919       -12.9232
  27   2.0000      -0.459871       -12.5137
  28   2.0000      -0.455262       -12.3883
  29   2.0000      -0.445834       -12.1318
  30   2.0000      -0.424902       -11.5622
  31   2.0000      -0.405406       -11.0317
  32   2.0000      -0.397910       -10.8277
  33   2.0000      -0.373904       -10.1745
  34   2.0000      -0.361163        -9.8277
  35   2.0000      -0.350401        -9.5349
  36   2.0000      -0.335410        -9.1270
  37   2.0000      -0.329595        -8.9687
  38   2.0000      -0.321170        -8.7395
  39   2.0000      -0.307554        -8.3690
  40   2.0000      -0.297873        -8.1055
  41   2.0000      -0.265155        -7.2152
  42   2.0000      -0.262255        -7.1363
  43   2.0000      -0.248368        -6.7584
  44   2.0000      -0.239100        -6.5062
  45   2.0000      -0.231437        -6.2977
  46   2.0000      -0.216170        -5.8823
  47   2.0000      -0.205887        -5.6025
  48   0.0000       0.008342         0.2270
  49   0.0000       0.019682         0.5356
  50   0.0000       0.035590         0.9684
  51   0.0000       0.052719         1.4346
  52   0.0000       0.057790         1.5726

MULLIKEN ATOMIC CHARGES
-----------------------
   0 C :    0.114542
   1 C :   -0.030734
   2 H :    0.068617
   3 C :    0.065845
   4 H :    0.058409
   5 C :    0.068171
   6 H :    0.058537
   7 C :    0.040098
   8 H :    0.041783
   9 C :    0.179333
  10 H :    0.056048
  11 O :   -0.307857
  12 O :   -0.390165
  13 O :   -0.424364
  14 O :   -0.427390
  15 O :   -0.431045
  16 O :   -0.447554
  17 H :    0.091428
  18 H :    0.060374
  19 H :    0.308777
  20 H :    0.308663
  21 H :    0.316043
  22 H :    0.320192
  23 H :    0.302248
Sum of atomic charges:   -0.0000000

LOEWDIN ATOMIC CHARGES
----------------------
   0 C :   -0.116697
   1 C :   -0.065917
   2 H :    0.109785
   3 C :   -0.067755
   4 H :    0.105198
   5 C :   -0.077339
   6 H :    0.106565
   7 C :   -0.100111
   8 H :    0.099935
   9 C :   -0.001572
  10 H :    0.098190
  11 O :   -0.146112
  12 O :   -0.297633
  13 O :   -0.325187
  14 O :   -0.325504
  15 O :   -0.311941
  16 O :   -0.340495
  17 H :    0.116203
  18 H :    0.095873
  19 H :    0.292483
  20 H :    0.288933
  21 H :    0.294226
  22 H :    0.295132
  23 H :    0.273738

  Mayer bond orders larger than 0.100000
B(  0-C ,  1-C ) :   1.0366 B(  0-C , 16-O ) :   1.0925 B(  0-C , 17-H ) :   0.9213
B(  0-C , 18-H ) :   0.9039 B(  1-C ,  2-H ) :   0.8784 B(  1-C ,  3-C ) :   1.0237
B(  1-C , 11-O ) :   0.9757 B(  3-C ,  4-H ) :   0.8670 B(  3-C ,  5-C ) :   1.0211
B(  3-C , 15-O ) :   1.0376 B(  5-C ,  6-H ) :   0.8756 B(  5-C ,  7-C ) :   1.0056
B(  5-C , 14-O ) :   1.0788 B(  7-C ,  8-H ) :   0.8595 B(  7-C ,  9-C ) :   0.9808
B(  7-C , 13-O ) :   1.0726 B(  9-C , 10-H ) :   0.8781 B(  9-C , 11-O ) :   1.0213
B(  9-C , 12-O ) :   1.1188 B( 12-O , 19-H ) :   0.8386 B( 13-O , 20-H ) :   0.8316
B( 14-O , 21-H ) :   0.8360 B( 15-O , 22-H ) :   0.8271 B( 16-O , 23-H ) :   0.8204

Dispersion correction           -0.023844437
FINAL SINGLE POINT ENERGY      -685.705507488188

DIPOLE MOMENT
-------------

Method             : SCF
Type of density    : Electron Density
Multiplicity       :   1
Irrep              :   0
Energy             :  -685.8369727886692999 Eh
Relativity type    :
Basis              : AO
                                X                 Y                 Z
Electronic contribution:      1.883479277      -0.024744275       0.283007744
Nuclear contribution   :     -0.839222978       0.424619449      -0.816145544
                        -----------------------------------------
Total Dipole Moment    :      1.044256299       0.399875174      -0.533137800
                        -----------------------------------------
Magnitude (a.u.)       :      1.238792673
Magnitude (Debye)      :      3.148760738

Rotational constants in cm-1:             0.043618             0.024527             0.016441
Rotational constants in MHz :          1307.620974           735.305589           492.898735

                             ****ORCA TERMINATED NORMALLY****
TOTAL RUN TIME: 0 days 0 hours 0 minutes 12 seconds 150 msec
