                         Program Version 6.0.0  -   RELEASE  -
|  1> ! pbe def2-sv(p) def2/J RI DEFGRID1 loosescf d4 GCP(DFT/SV(P)) printgap
|  2> %output
|  3>     printlevel normal
|  4> end
|  5> * xyz 0 1
|  6> C -3.3266182623 0.4264406156 -0.2382946128
|  7> C -1.8514393258 0.5079570456 -0.0328816877
|  8> C -1.0930580439 1.5502474581 -0.3511701725
|  9> C 0.3792585144 1.4926014376 -0.103326527
| 10> C 0.9683587656 0.1729967972 -0.656204676
| 11> H 1.0040528486 0.2798329647 -1.7443019156
| 12> C 0.0711426689 -1.0352285297 -0.3224452836
| 13> C -1.1375779138 -0.6787302892 0.5664879302
| 14> H -0.7722488693 -0.3902181634 1.5687397125
| 15> O -2.0215968408 -1.7737283713 0.6923433981
| 16> C 2.3858266212 0.0137183099 -0.1622005393
| 17> C 3.4157988518 0.2638981474 -0.9565822161
| 18> C 2.5866320021 -0.4132397906 1.2634053865
| 19> H -3.5638101112 -0.4178672019 -0.883128784
| 20> H -3.7017656616 1.3429762179 -0.6844925739
| 21> H -3.8254120585 0.2536946422 0.7139216951
| 22> H -1.5130396756 2.4409757212 -0.7916228124
| 23> H 0.8915384311 2.3346900154 -0.5680874777
| 24> H 0.5660243001 1.5438326016 0.9736157057
| 25> H -0.3332779751 -1.4547660324 -1.2456615795
| 26> H 0.6530947331 -1.8173901847 0.1654197419
| 27> H -1.5419655243 -2.5255068128 1.0630470912
| 28> H 4.4328573824 0.1849510671 -0.6111505752
| 29> H 3.2857648969 0.5556520777 -1.9850280759
| 30> H 2.6427871756 -1.499619797 1.3274765036
| 31> H 3.5184486475 -0.0117583831 1.6525436002
| 32> H 1.7672881945 -0.0799728197 1.8944237561
| 33> *
| 34>
| 35>                          ****END OF INPUT****

CARTESIAN COORDINATES (ANGSTROEM)
---------------------------------
  C     -3.326618    0.426441   -0.238295
  C     -1.851439    0.507957   -0.032882
  C     -1.093058    1.550247   -0.351170
  C      0.379259    1.492601   -0.103327
  C      0.968359    0.172997   -0.656205
  H      1.004053    0.279833   -1.744302
  C      0.071143   -1.035229   -0.322445
  C     -1.137578   -0.678730    0.566488
  H     -0.772249   -0.390218    1.568740
  O     -2.021597   -1.773728    0.692343
  C      2.385827    0.013718   -0.162201
  C      3.415799    0.263898   -0.956582
  C      2.586632   -0.413240    1.263405
  H     -3.563810   -0.417867   -0.883129
  H     -3.701766    1.342976   -0.684493
  H     -3.825412    0.253695    0.713922
  H     -1.513040    2.440976   -0.791623
  H      0.891538    2.334690   -0.568087
  H      0.566024    1.543833    0.973616
  H     -0.333278   -1.454766   -1.245662
  H      0.653095   -1.817390    0.165420
  H     -1.541966   -2.525507    1.063047
  H      4.432857    0.184951   -0.611151
  H      3.285765    0.555652   -1.985028
  H      2.642787   -1.499620    1.327477
  H      3.518449   -0.011758    1.652544
  H      1.767288   -0.079973    1.894424

 Total Charge           Charge          ....    0
 Multiplicity           Mult            ....    1
 Number of Electrons    NEL             ....   84
 Basis Dimension        Dim             ....  186

ORBITAL ENERGIES
----------------

  NO   OCC          E(Eh)            E(eV)
   0   2.0000     -18.746930      -510.1299
   1   2.0000      -9.941103      -270.5112
   2   2.0000      -9.899834      -269.3882
   3   2.0000      -9.898542      -269.3530
   4   2.0000      -9.887573      -269.0545
   5   2.0000      -9.887338      -269.0481
   6   2.0000      -9.887212      -269.0447
   7   2.0000      -9.884093      -268.9598
   8   2.0000      -9.873661      -268.6760
   9   2.0000      -9.870741      -268.5965
  10   2.0000      -9.866151      -268.4716
  11   2.0000      -0.925551       -25.1855
  12   2.0000      -0.766156       -20.8482
  13   2.0000      -0.722794       -19.6682
  14   2.0000      -0.672470       -18.2988
  15   2.0000      -0.655877       -17.8473
  16   2.0000      -0.618147       -16.8206
  17   2.0000      -0.603819       -16.4307
  18   2.0000      -0.558250       -15.1907
  19   2.0000      -0.529806       -14.4167
  20   2.0000      -0.474122       -12.9015
  21   2.0000      -0.471516       -12.8306
  22   2.0000      -0.445728       -12.1289
  23   2.0000      -0.423795       -11.5320
  24   2.0000      -0.409953       -11.1554
  25   2.0000      -0.399419       -10.8687
  26   2.0000      -0.389198       -10.5906
  27   2.0000      -0.375205       -10.2098
  28   2.0000      -0.372383       -10.1331
  29   2.0000      -0.350928        -9.5492
  30   2.0000      -0.347025        -9.4430
  31   2.0000      -0.343719        -9.3531
  32   2.0000      -0.326796        -8.8926
  33   2.0000      -0.323680        -8.8078
  34   2.0000      -0.317290        -8.6339
  35   2.0000      -0.308568        -8.3966
  36   2.0000      -0.292057        -7.9473
  37   2.0000      -0.282840        -7.6965
  38   2.0000      -0.256309        -6.9745
  39   2.0000      -0.224108        -6.0983
  40   2.0000      -0.217284        -5.9126
  41   2.0000      -0.195153        -5.3104
  42   0.0000      -0.013591        -0.3698
  43   0.0000      -0.006028        -0.1640
  44   0.0000       0.022890         0.6229
  45   0.0000       0.039724         1.0809
  46   0.0000       0.051915         1.4127

MULLIKEN ATOMIC CHARGES
-----------------------
   0 C :   -0.182485
   1 C :   -0.096963
   2 C :   -0.199683
   3 C :   -0.024970
   4 C :   -0.146546
   5 H :    0.057078
   6 C :   -0.097575
   7 C :    0.081462
   8 H :    0.065585
   9 O :   -0.410261
  10 C :   -0.043441
  11 C :   -0.233638
  12 C :   -0.231430
  13 H :    0.112400
  14 H :    0.091470
  15 H :    0.107620
  16 H :    0.041028
  17 H :    0.080451
  18 H :    0.086089
  19 H :    0.082791
  20 H :    0.068254
  21 H :    0.300197
  22 H :    0.077984
  23 H :    0.083633
  24 H :    0.118073
  25 H :    0.109294
  26 H :    0.103584
Sum of atomic charges:    0.0000000

LOEWDIN ATOMIC CHARGES
----------------------
   0 C :   -0.320009
   1 C :   -0.066439
   2 C :   -0.161875
   3 C :   -0.209503
   4 C :   -0.122659
   5 H :    0.124575
   6 C :   -0.224936
   7 C :   -0.040859
   8 H :    0.103587
   9 O :   -0.320119
  10 C :   -0.051330
  11 C :   -0.268214
  12 C :   -0.328574
  13 H :    0.132341
  14 H :    0.120872
  15 H :    0.131372
  16 H :    0.116858
  17 H :    0.124335
  18 H :    0.123791
  19 H :    0.125939
  20 H :    0.111950
  21 H :    0.286316
  22 H :    0.114807
  23 H :    0.116571
  24 H :    0.131990
  25 H :    0.130444
  26 H :    0.118769

  Mayer bond orders larger than 0.100000
B(  0-C ,  1-C ) :   1.1533 B(  0-C , 13-H ) :   0.9241 B(  0-C , 14-H ) :   0.9395
B(  0-C , 15-H ) :   0.9266 B(  1-C ,  2-C ) :   1.8773 B(  1-C ,  7-C ) :   1.0215
B(  2-C ,  3-C ) :   1.0769 B(  2-C , 16-H ) :   0.9472 B(  3-C ,  4-C ) :   1.1073
B(  3-C , 17-H ) :   0.9090 B(  3-C , 18-H ) :   0.8709 B(  4-C ,  5-H ) :   0.8782
B(  4-C ,  6-C ) :   1.0489 B(  4-C , 10-C ) :   1.0088 B(  6-C ,  7-C ) :   1.1093
B(  6-C , 19-H ) :   0.8918 B(  6-C , 20-H ) :   0.9018 B(  7-C ,  8-H ) :   0.8683
B(  7-C ,  9-O ) :   1.0975 B(  9-O , 21-H ) :   0.8486 B( 10-C , 11-C ) :   2.0378
B( 10-C , 12-C ) :   1.1083 B( 11-C , 22-H ) :   0.9112 B( 11-C , 23-H ) :   0.9089
B( 12-C , 24-H ) :   0.9210 B( 12-C , 25-H ) :   0.9363 B( 12-C , 26-H ) :   0.9285

Dispersion correction           -0.028551490
FINAL SINGLE POINT ENERGY      -464.784454782261

DIPOLE MOMENT
-------------

Method             : SCF
Type of density    : Electron Density
Multiplicity       :   1
Irrep              :   0
Energy             :  -464.8744691533556761 Eh
Relativity type    :
Basis              : AO
                                X                 Y                 Z
Electronic contribution:     -2.925752294      -0.924674945      -0.506023444
Nuclear contribution   :      3.263302681       0.667477485       0.803687200
                        -----------------------------------------
Total Dipole Moment    :      0.337550387      -0.257197460       0.297663757
                        -----------------------------------------
Magnitude (a.u.)       :      0.518357511
Magnitude (Debye)      :      1.317560084

Rotational constants in cm-1:             0.071219             0.023110             0.019615
Rotational constants in MHz :          2135.090093           692.808771           588.052374

                             ****ORCA TERMINATED NORMALLY****
TOTAL RUN TIME: 0 days 0 hours 0 minutes 12 seconds 166 msec
