                         Program Version 6.0.0  -   RELEASE  -
|  1> ! r2scan-3c def2/J RI DEFGRID2 scfconv6 printgap
|  2> %output
|  3>     printlevel normal
|  4> end
|  5> * xyz 0 1
|  6> C -2.1750622641 0.3008567503 -0.4210086609
|  7> C -1.0246118075 0.1890457312 0.5803917534
|  8> C -0.0002380569 -0.795193343 0.1069448733
|  9> C 1.2757520367 -0.5718824355 -0.169239346
| 10> C 2.0245850499 0.7165025363 -0.0635101638
| 11> H -1.8058355832 0.6564646818 -1.380285771
| 12> H -2.9280530606 0.9965628513 -0.0588193526
| 13> H -2.6438453095 -0.6689611938 -0.5723652681
| 14> H -0.5821770577 1.1724118332 0.7353216533
| 15> H -1.4220531347 -0.1546963049 1.5397839841
| 16> H -0.389227395 -1.7973945097 -0.0293720815
| 17> H 1.8810347242 -1.4035985274 -0.5103756058
| 18> H 1.3872505457 1.5403755637 0.240746751
| 19> H 2.4741842272 0.9591977033 -1.0255965542
| 20> H 2.832046892 0.6142088465 0.6608375677
| 21> *
| 22>
| 23>                          ****END OF INPUT****

CARTESIAN COORDINATES (ANGSTROEM)
---------------------------------
  C     -2.175062    0.300857   -0.421009
  C     -1.024612    0.189046    0.580392
  C     -0.000238   -0.795193    0.106945
  C      1.275752   -0.571882   -0.169239
  C      2.024585    0.716503   -0.063510
  H     -1.805836    0.656465   -1.380286
  H     -2.928053    0.996563   -0.058819
  H     -2.643845   -0.668961   -0.572365
  H     -0.582177    1.172412    0.735322
  H     -1.422053   -0.154696    1.539784
  H     -0.389227   -1.797395   -0.029372
  H      1.881035   -1.403599   -0.510376
  H      1.387251    1.540376    0.240747
  H      2.474184    0.959198   -1.025597
  H      2.832047    0.614209    0.660838

 Total Charge           Charge          ....    0
 Multiplicity           Mult            ....    1
 Number of Electrons    NEL             ....   40
 Basis Dimension        Dim             ....  145

ORBITAL ENERGIES
----------------

  NO   OCC          E(Eh)            E(eV)
   0   2.0000     -10.027837      -272.8713
   1   2.0000     -10.023838      -272.7625
   2   2.0000     -10.021916      -272.7102
   3   2.0000     -10.020274      -272.6655
   4   2.0000     -10.017635      -272.5937
   5   2.0000      -0.771635       -20.9972
   6   2.0000      -0.718407       -19.5488
   7   2.0000      -0.648111       -17.6360
   8   2.0000      -0.582652       -15.8548
   9   2.0000      -0.492715       -13.4075
  10   2.0000      -0.449794       -12.2395
  11   2.0000      -0.403207       -10.9718
  12   2.0000      -0.395256       -10.7555
  13   2.0000      -0.380363       -10.3502
  14   2.0000      -0.350536        -9.5386
  15   2.0000      -0.337901        -9.1948
  16   2.0000      -0.335234        -9.1222
  17   2.0000      -0.308654        -8.3989
  18   2.0000      -0.288849        -7.8600
  19   2.0000      -0.218691        -5.9509
  20   0.0000       0.002596         0.0706
  21   0.0000       0.090566         2.4644
  22   0.0000       0.120183         3.2703
  23   0.0000       0.125555         3.4165
  24   0.0000       0.140298         3.8177

MULLIKEN ATOMIC CHARGES
-----------------------
   0 C :   -0.453911
   1 C :   -0.244961
   2 C :   -0.140969
   3 C :   -0.135863
   4 C :   -0.461503
   5 H :    0.147251
   6 H :    0.143432
   7 H :    0.143970
   8 H :    0.129155
   9 H :    0.145465
  10 H :    0.144600
  11 H :    0.147271
  12 H :    0.137583
  13 H :    0.148575
  14 H :    0.149905
Sum of atomic charges:   -0.0000000

LOEWDIN ATOMIC CHARGES
----------------------
   0 C :   -0.415151
   1 C :   -0.305794
   2 C :   -0.211588
   3 C :   -0.212632
   4 C :   -0.410456
   5 H :    0.152922
   6 H :    0.148901
   7 H :    0.150197
   8 H :    0.152588
   9 H :    0.159208
  10 H :    0.162238
  11 H :    0.159080
  12 H :    0.152107
  13 H :    0.158609
  14 H :    0.159771

  Mayer bond orders larger than 0.100000
B(  0-C ,  1-C ) :   0.8822 B(  0-C ,  5-H ) :   0.9779 B(  0-C ,  6-H ) :   0.9705
B(  0-C ,  7-H ) :   0.9837 B(  1-C ,  2-C ) :   0.9304 B(  1-C ,  8-H ) :   0.9875
B(  1-C ,  9-H ) :   0.9733 B(  2-C ,  3-C ) :   1.9453 B(  2-C , 10-H ) :   0.9323
B(  3-C ,  4-C ) :   0.9150 B(  3-C , 11-H ) :   0.9369 B(  4-C , 12-H ) :   0.9911
B(  4-C , 13-H ) :   0.9667 B(  4-C , 14-H ) :   0.9665

Dispersion correction           -0.003254515
FINAL SINGLE POINT ENERGY      -196.460514903567

DIPOLE MOMENT
-------------

Method             : SCF
Type of density    : Electron Density
Multiplicity       :   1
Irrep              :   0
Energy             :  -196.4635119947452040 Eh
Relativity type    :
Basis              : AO
                                X                 Y                 Z
Electronic contribution:      1.126940286      -1.687899503       0.397304064
Nuclear contribution   :     -1.122686469       1.796195809      -0.375385551
                        -----------------------------------------
Total Dipole Moment    :      0.004253818       0.108296306       0.021918514
                        -----------------------------------------
Magnitude (a.u.)       :      0.110573985
Magnitude (Debye)      :      0.281056733

Rotational constants in cm-1:             0.373289             0.087255             0.079922
Rotational constants in MHz :         11190.909572          2615.852879          2395.999975

                             ****ORCA TERMINATED NORMALLY****
TOTAL RUN TIME: 0 days 0 hours 0 minutes 11 seconds 135 msec
