                         Program Version 6.0.0  -   RELEASE  -
|  1> ! r2scan-3c def2/J RI DEFGRID2 scfconv6 printgap
|  2> %output
|  3>     printlevel normal
|  4> end
|  5> %cpcm
|  6>     smd true
|  7>     smdsolvent "water"
|  8> end
|  9> * xyz 0 1
| 10> C -2.1750622641 0.3008567503 -0.4210086609
| 11> C -1.0246118075 0.1890457312 0.5803917534
| 12> C -0.0002380569 -0.795193343 0.1069448733
| 13> C 1.2757520367 -0.5718824355 -0.169239346
| 14> C 2.0245850499 0.7165025363 -0.0635101638
| 15> H -1.8058355832 0.6564646818 -1.380285771
| 16> H -2.9280530606 0.9965628513 -0.0588193526
| 17> H -2.6438453095 -0.6689611938 -0.5723652681
| 18> H -0.5821770577 1.1724118332 0.7353216533
| 19> H -1.4220531347 -0.1546963049 1.5397839841
| 20> H -0.389227395 -1.7973945097 -0.0293720815
| 21> H 1.8810347242 -1.4035985274 -0.5103756058
| 22> H 1.3872505457 1.5403755637 0.240746751
| 23> H 2.4741842272 0.9591977033 -1.0255965542
| 24> H 2.832046892 0.6142088465 0.6608375677
| 25> *
| 26>
| 27>                          ****END OF INPUT****

CARTESIAN COORDINATES (ANGSTROEM)
---------------------------------
  C     -2.175062    0.300857   -0.421009
  C     -1.024612    0.189046    0.580392
  C     -0.000238   -0.795193    0.106945
  C      1.275752   -0.571882   -0.169239
  C      2.024585    0.716503   -0.063510
  H     -1.805836    0.656465   -1.380286
  H     -2.928053    0.996563   -0.058819
  H     -2.643845   -0.668961   -0.572365
  H     -0.582177    1.172412    0.735322
  H     -1.422053   -0.154696    1.539784
  H     -0.389227   -1.797395   -0.029372
  H      1.881035   -1.403599   -0.510376
  H      1.387251    1.540376    0.240747
  H      2.474184    0.959198   -1.025597
  H      2.832047    0.614209    0.660838

 Total Charge           Charge          ....    0
 Multiplicity           Mult            ....    1
 Number of Electrons    NEL             ....   40
 Basis Dimension        Dim             ....  145

ORBITAL ENERGIES
----------------

  NO   OCC          E(Eh)            E(eV)
   0   2.0000     -10.022219      -272.7184
   1   2.0000     -10.021729      -272.7051
   2   2.0000     -10.018906      -272.6283
   3   2.0000     -10.014611      -272.5114
   4   2.0000     -10.011441      -272.4252
   5   2.0000      -0.768850       -20.9215
   6   2.0000      -0.713490       -19.4151
   7   2.0000      -0.643808       -17.5189
   8   2.0000      -0.577901       -15.7255
   9   2.0000      -0.488126       -13.2826
  10   2.0000      -0.445180       -12.1140
  11   2.0000      -0.398367       -10.8401
  12   2.0000      -0.389933       -10.6106
  13   2.0000      -0.374522       -10.1913
  14   2.0000      -0.344479        -9.3738
  15   2.0000      -0.332484        -9.0474
  16   2.0000      -0.329876        -8.9764
  17   2.0000      -0.302339        -8.2271
  18   2.0000      -0.283845        -7.7238
  19   2.0000      -0.219754        -5.9798
  20   0.0000       0.002556         0.0695
  21   0.0000       0.095339         2.5943
  22   0.0000       0.125383         3.4119
  23   0.0000       0.133233         3.6254
  24   0.0000       0.145908         3.9703

MULLIKEN ATOMIC CHARGES
-----------------------
   0 C :   -0.489744
   1 C :   -0.246652
   2 C :   -0.199722
   3 C :   -0.171084
   4 C :   -0.493017
   5 H :    0.153357
   6 H :    0.156773
   7 H :    0.158251
   8 H :    0.149576
   9 H :    0.156498
  10 H :    0.168420
  11 H :    0.170218
  12 H :    0.158151
  13 H :    0.164055
  14 H :    0.164921
Sum of atomic charges:   -0.0000000

LOEWDIN ATOMIC CHARGES
----------------------
   0 C :   -0.422281
   1 C :   -0.309372
   2 C :   -0.227555
   3 C :   -0.225189
   4 C :   -0.418396
   5 H :    0.153509
   6 H :    0.153298
   7 H :    0.153732
   8 H :    0.158450
   9 H :    0.163498
  10 H :    0.168122
  11 H :    0.164962
  12 H :    0.157929
  13 H :    0.164171
  14 H :    0.165122

  Mayer bond orders larger than 0.100000
B(  0-C ,  1-C ) :   0.8723 B(  0-C ,  5-H ) :   0.9763 B(  0-C ,  6-H ) :   0.9674
B(  0-C ,  7-H ) :   0.9814 B(  1-C ,  2-C ) :   0.9173 B(  1-C ,  8-H ) :   0.9876
B(  1-C ,  9-H ) :   0.9670 B(  2-C ,  3-C ) :   1.9113 B(  2-C , 10-H ) :   0.9370
B(  3-C ,  4-C ) :   0.9032 B(  3-C , 11-H ) :   0.9405 B(  4-C , 12-H ) :   0.9883
B(  4-C , 13-H ) :   0.9608 B(  4-C , 14-H ) :   0.9608

Dispersion correction           -0.003254515
FINAL SINGLE POINT ENERGY      -196.459268709490

DIPOLE MOMENT
-------------

Method             : SCF
Type of density    : Electron Density
Multiplicity       :   1
Irrep              :   0
Energy             :  -196.4622658006685754 Eh
Relativity type    :
Basis              : AO
                                X                 Y                 Z
Electronic contribution:      1.122811323      -1.632607591       0.416877400
Nuclear contribution   :     -1.122686469       1.796195809      -0.375385551
                        -----------------------------------------
Total Dipole Moment    :      0.000124855       0.163588218       0.041491849
                        -----------------------------------------
Magnitude (a.u.)       :      0.168768167
Magnitude (Debye)      :      0.428974590

Rotational constants in cm-1:             0.373289             0.087255             0.079922
Rotational constants in MHz :         11190.909572          2615.852879          2395.999975

                             ****ORCA TERMINATED NORMALLY****
TOTAL RUN TIME: 0 days 0 hours 0 minutes 14 seconds 14 msec
