                         Program Version 6.0.0  -   RELEASE  -
|  1> ! pbe def2-sv(p) def2/J RI DEFGRID1 loosescf d4 GCP(DFT/SV(P)) printgap
|  2> %output
|  3>     printlevel normal
|  4> end
|  5> * xyz 0 1
|  6> C -3.6545393772 0.1851774781 0.1235180801
|  7> C -2.1639166762 0.0677973832 0.0238307355
|  8> C -1.4757238517 -0.9887520915 0.6003529104
|  9> C -0.0978353346 -1.0809258393 0.5084578376
| 10> C 0.6514588389 -0.1187831055 -0.159961088
| 11> C -0.0463954757 0.9329471106 -0.7476866267
| 12> C -1.4221915142 1.025466993 -0.6561836023
| 13> C 2.1601207808 -0.2318148099 -0.2793767499
| 14> C 2.7838274554 -0.9811984972 0.9019854374
| 15> C 2.8386956458 1.1347163507 -0.4143178193
| 16> H -3.9252456134 1.0827526826 0.678017468
| 17> H -4.0963091233 0.2611269385 -0.8686576102
| 18> H -4.0784883025 -0.6774524914 0.6306813618
| 19> H -2.0219511358 -1.7559443181 1.1312932868
| 20> H 0.386700439 -1.9262944514 0.9700416706
| 21> H 0.4807481592 1.6999505263 -1.2920199703
| 22> H -1.9307100452 1.8577540595 -1.1224231671
| 23> H 2.3726538888 -0.8052690016 -1.1923004719
| 24> H 3.8683672072 -0.9377040766 0.833403566
| 25> H 2.4971481137 -2.0288666569 0.9096285209
| 26> H 2.479439855 -0.5262036085 1.8419468012
| 27> H 3.9190105779 1.0130085932 -0.3831022133
| 28> H 2.541505258 1.7872206201 0.4037000475
| 29> H 2.5896643037 1.6157459618 -1.355901511
| 30> *
| 31>
| 32>                          ****END OF INPUT****

CARTESIAN COORDINATES (ANGSTROEM)
---------------------------------
  C     -3.654539    0.185177    0.123518
  C     -2.163917    0.067797    0.023831
  C     -1.475724   -0.988752    0.600353
  C     -0.097835   -1.080926    0.508458
  C      0.651459   -0.118783   -0.159961
  C     -0.046395    0.932947   -0.747687
  C     -1.422192    1.025467   -0.656184
  C      2.160121   -0.231815   -0.279377
  C      2.783827   -0.981198    0.901985
  C      2.838696    1.134716   -0.414318
  H     -3.925246    1.082753    0.678017
  H     -4.096309    0.261127   -0.868658
  H     -4.078488   -0.677452    0.630681
  H     -2.021951   -1.755944    1.131293
  H      0.386700   -1.926294    0.970042
  H      0.480748    1.699951   -1.292020
  H     -1.930710    1.857754   -1.122423
  H      2.372654   -0.805269   -1.192300
  H      3.868367   -0.937704    0.833404
  H      2.497148   -2.028867    0.909629
  H      2.479440   -0.526204    1.841947
  H      3.919011    1.013009   -0.383102
  H      2.541505    1.787221    0.403700
  H      2.589664    1.615746   -1.355902

 Total Charge           Charge          ....    0
 Multiplicity           Mult            ....    1
 Number of Electrons    NEL             ....   74
 Basis Dimension        Dim             ....  168

ORBITAL ENERGIES
----------------

  NO   OCC          E(Eh)            E(eV)
   0   2.0000      -9.899898      -269.3899
   1   2.0000      -9.893991      -269.2292
   2   2.0000      -9.893306      -269.2105
   3   2.0000      -9.882016      -268.9033
   4   2.0000      -9.881509      -268.8895
   5   2.0000      -9.881212      -268.8814
   6   2.0000      -9.880934      -268.8739
   7   2.0000      -9.879192      -268.8265
   8   2.0000      -9.874232      -268.6915
   9   2.0000      -9.874158      -268.6895
  10   2.0000      -0.775490       -21.1022
  11   2.0000      -0.726861       -19.7789
  12   2.0000      -0.676723       -18.4146
  13   2.0000      -0.662697       -18.0329
  14   2.0000      -0.611687       -16.6449
  15   2.0000      -0.607715       -16.5368
  16   2.0000      -0.536053       -14.5867
  17   2.0000      -0.534385       -14.5413
  18   2.0000      -0.498468       -13.5640
  19   2.0000      -0.445896       -12.1334
  20   2.0000      -0.414761       -11.2862
  21   2.0000      -0.412368       -11.2211
  22   2.0000      -0.386960       -10.5297
  23   2.0000      -0.382555       -10.4098
  24   2.0000      -0.374181       -10.1820
  25   2.0000      -0.366760        -9.9800
  26   2.0000      -0.351778        -9.5724
  27   2.0000      -0.341520        -9.2932
  28   2.0000      -0.327440        -8.9101
  29   2.0000      -0.323777        -8.8104
  30   2.0000      -0.316311        -8.6073
  31   2.0000      -0.305835        -8.3222
  32   2.0000      -0.293401        -7.9839
  33   2.0000      -0.280151        -7.6233
  34   2.0000      -0.275989        -7.5100
  35   2.0000      -0.221253        -6.0206
  36   2.0000      -0.206380        -5.6159
  37   0.0000      -0.029146        -0.7931
  38   0.0000      -0.024416        -0.6644
  39   0.0000       0.040519         1.1026
  40   0.0000       0.054306         1.4777
  41   0.0000       0.070377         1.9151

MULLIKEN ATOMIC CHARGES
-----------------------
   0 C :   -0.222271
   1 C :    0.060976
   2 C :   -0.112054
   3 C :   -0.131273
   4 C :    0.137125
   5 C :   -0.132299
   6 C :   -0.105667
   7 C :   -0.146721
   8 C :   -0.255894
   9 C :   -0.255450
  10 H :    0.114806
  11 H :    0.112576
  12 H :    0.099347
  13 H :    0.030034
  14 H :    0.030906
  15 H :    0.032530
  16 H :    0.028925
  17 H :    0.090089
  18 H :    0.097359
  19 H :    0.113251
  20 H :    0.101813
  21 H :    0.097401
  22 H :    0.101461
  23 H :    0.113029
Sum of atomic charges:   -0.0000000

LOEWDIN ATOMIC CHARGES
----------------------
   0 C :   -0.323305
   1 C :   -0.052503
   2 C :   -0.125353
   3 C :   -0.123833
   4 C :   -0.037502
   5 C :   -0.123022
   6 C :   -0.122131
   7 C :   -0.143068
   8 C :   -0.328993
   9 C :   -0.328917
  10 H :    0.131776
  11 H :    0.130566
  12 H :    0.123079
  13 H :    0.118806
  14 H :    0.121477
  15 H :    0.121452
  16 H :    0.118693
  17 H :    0.128494
  18 H :    0.117960
  19 H :    0.117795
  20 H :    0.121468
  21 H :    0.117982
  22 H :    0.121380
  23 H :    0.117699

  Mayer bond orders larger than 0.100000
B(  0-C ,  1-C ) :   1.0959 B(  0-C , 10-H ) :   0.9357 B(  0-C , 11-H ) :   0.9374
B(  0-C , 12-H ) :   0.9457 B(  1-C ,  2-C ) :   1.4002 B(  1-C ,  6-C ) :   1.3746
B(  2-C ,  3-C ) :   1.3547 B(  2-C , 13-H ) :   0.9569 B(  3-C ,  4-C ) :   1.3953
B(  3-C , 14-H ) :   0.9550 B(  4-C ,  5-C ) :   1.3812 B(  4-C ,  7-C ) :   0.9968
B(  5-C ,  6-C ) :   1.3736 B(  5-C , 15-H ) :   0.9557 B(  6-C , 16-H ) :   0.9647
B(  7-C ,  8-C ) :   1.1389 B(  7-C ,  9-C ) :   1.1384 B(  7-C , 17-H ) :   0.8728
B(  8-C , 18-H ) :   0.9461 B(  8-C , 19-H ) :   0.9337 B(  8-C , 20-H ) :   0.9506
B(  9-C , 21-H ) :   0.9461 B(  9-C , 22-H ) :   0.9507 B(  9-C , 23-H ) :   0.9337

Dispersion correction           -0.024638616
FINAL SINGLE POINT ENERGY      -388.582258835054

DIPOLE MOMENT
-------------

Method             : SCF
Type of density    : Electron Density
Multiplicity       :   1
Irrep              :   0
Energy             :  -388.6512472912277758 Eh
Relativity type    :
Basis              : AO
                                X                 Y                 Z
Electronic contribution:     -4.753416079      -0.617144955      -1.155613068
Nuclear contribution   :      4.768263406       0.619025588       1.111078039
                        -----------------------------------------
Total Dipole Moment    :      0.014847328       0.001880634      -0.044535029
                        -----------------------------------------
Magnitude (a.u.)       :      0.046982430
Magnitude (Debye)      :      0.119419847

Rotational constants in cm-1:             0.110444             0.025935             0.021649
Rotational constants in MHz :          3311.018240           777.497495           649.018863

                             ****ORCA TERMINATED NORMALLY****
TOTAL RUN TIME: 0 days 0 hours 0 minutes 11 seconds 391 msec
