                         Program Version 6.0.0  -   RELEASE  -
|  1> ! wb97x-v def2-tzvp def2/J RIJCOSX DEFGRID2 scfconv7 GCP(DFT/TZ) printgap
|  2> %output
|  3>     printlevel normal
|  4> end
|  5> * xyz 0 1
|  6> C 2.3964907587212507 0.0656292098402212 -0.0005647404960342843
|  7> C 0.9037683751439693 -0.003159912283677246 0.0013384270655289957
|  8> C 0.13922223864624306 1.1707349302091192 0.001394998633890046
|  9> N -1.1939403031399591 1.1702662082327613 0.00019260731420634773
| 10> C -1.7787041717198038 -0.03736349926906151 -0.0007132870342698137
| 11> C -1.0349024144296426 -1.2052683295316693 -0.0004029457162611434
| 12> N 0.3062338101720944 -1.2035294159715235 0.000529731521845513
| 13> H 2.7561852018947723 0.6422398216026645 0.8580019745877687
| 14> H 2.831441716086836 -0.9340724051881514 0.036294428688693384
| 15> H 2.7552634961982454 0.5744191125829806 -0.9017859831275005
| 16> H 0.6359232095723217 2.138817340093009 0.002613194125118848
| 17> H -2.8646125726847007 -0.07092333113702352 -0.0015200534799475647
| 18> H -1.5301555415247972 -2.173069838521366 -0.000804835515311259
| 19> *
| 20>
| 21>                          ****END OF INPUT****

CARTESIAN COORDINATES (ANGSTROEM)
---------------------------------
  C      2.396491    0.065629   -0.000565
  C      0.903768   -0.003160    0.001338
  C      0.139222    1.170735    0.001395
  N     -1.193940    1.170266    0.000193
  C     -1.778704   -0.037363   -0.000713
  C     -1.034902   -1.205268   -0.000403
  N      0.306234   -1.203529    0.000530
  H      2.756185    0.642240    0.858002
  H      2.831442   -0.934072    0.036294
  H      2.755263    0.574419   -0.901786
  H      0.635923    2.138817    0.002613
  H     -2.864613   -0.070923   -0.001520
  H     -1.530156   -2.173070   -0.000805

 Total Charge           Charge          ....    0
 Multiplicity           Mult            ....    1
 Number of Electrons    NEL             ....   50
 Basis Dimension        Dim             ....  253

ORBITAL ENERGIES
----------------

  NO   OCC          E(Eh)            E(eV)
   0   2.0000     -16.548142      -450.2978
   1   2.0000     -16.545102      -450.2151
   2   2.0000     -12.104979      -329.3932
   3   2.0000     -12.094430      -329.1062
   4   2.0000     -12.093130      -329.0708
   5   2.0000     -12.090973      -329.0121
   6   2.0000     -12.052945      -327.9773
   7   2.0000      -1.559074       -42.4246
   8   2.0000      -1.505127       -40.9566
   9   2.0000      -1.334195       -36.3053
  10   2.0000      -1.243593       -33.8399
  11   2.0000      -1.196460       -32.5573
  12   2.0000      -1.155335       -31.4383
  13   2.0000      -1.056370       -28.7453
  14   2.0000      -0.985195       -26.8085
  15   2.0000      -0.940252       -25.5856
  16   2.0000      -0.893566       -24.3152
  17   2.0000      -0.878211       -23.8973
  18   2.0000      -0.867014       -23.5926
  19   2.0000      -0.840256       -22.8645
  20   2.0000      -0.833712       -22.6865
  21   2.0000      -0.829948       -22.5840
  22   2.0000      -0.779381       -21.2080
  23   2.0000      -0.758568       -20.6417
  24   2.0000      -0.660268       -17.9668
  25   0.0000      -0.346990        -9.4421
  26   0.0000      -0.258823        -7.0429
  27   0.0000      -0.133725        -3.6388
  28   0.0000      -0.069464        -1.8902
  29   0.0000      -0.038306        -1.0424

MULLIKEN ATOMIC CHARGES
-----------------------
   0 C :   -0.362424
   1 C :    0.165527
   2 C :   -0.089801
   3 N :   -0.204825
   4 C :   -0.032026
   5 C :   -0.025881
   6 N :   -0.231662
   7 H :    0.127639
   8 H :    0.138267
   9 H :    0.127862
  10 H :    0.130540
  11 H :    0.128754
  12 H :    0.128030
Sum of atomic charges:    0.0000000

LOEWDIN ATOMIC CHARGES
----------------------
   0 C :   -0.252776
   1 C :   -0.248208
   2 C :   -0.184870
   3 N :    0.144464
   4 C :   -0.219121
   5 C :   -0.209844
   6 N :    0.162302
   7 H :    0.131044
   8 H :    0.131370
   9 H :    0.131543
  10 H :    0.139856
  11 H :    0.136742
  12 H :    0.137498

  Mayer bond orders larger than 0.100000
B(  0-C ,  1-C ) :   0.9286 B(  0-C ,  7-H ) :   0.9729 B(  0-C ,  8-H ) :   0.9894
B(  0-C ,  9-H ) :   0.9695 B(  1-C ,  2-C ) :   1.3538 B(  1-C ,  6-N ) :   1.5069
B(  2-C ,  3-N ) :   1.5448 B(  2-C , 10-H ) :   0.9760 B(  3-N ,  4-C ) :   1.4557
B(  4-C ,  5-C ) :   1.4300 B(  4-C , 11-H ) :   0.9713 B(  5-C ,  6-N ) :   1.4745
B(  5-C , 12-H ) :   0.9715

FINAL SINGLE POINT ENERGY      -303.648032253121

DIPOLE MOMENT
-------------

Method             : SCF
Type of density    : Electron Density
Multiplicity       :   1
Irrep              :   0
Energy             :  -303.6550396756206283 Eh
Relativity type    :
Basis              : AO
                                X                 Y                 Z
Electronic contribution:     -4.059777282      -0.195157607       0.005786584
Nuclear contribution   :      4.313493539       0.190249172      -0.007680939
                        -----------------------------------------
Total Dipole Moment    :      0.253716257      -0.004908435      -0.001894355
                        -----------------------------------------
Magnitude (a.u.)       :      0.253770803
Magnitude (Debye)      :      0.645034118

Rotational constants in cm-1:             0.195987             0.090069             0.062424
Rotational constants in MHz :          5875.544947          2700.193779          1871.416282

                             ****ORCA TERMINATED NORMALLY****
TOTAL RUN TIME: 0 days 0 hours 1 minutes 44 seconds 506 msec
