                         Program Version 6.0.0  -   RELEASE  -
|  1> ! wb97x-v def2-tzvp def2/J RIJCOSX DEFGRID2 scfconv7 GCP(DFT/TZ) printgap
|  2> %output
|  3>     printlevel normal
|  4> end
|  5> %cpcm
|  6>     smd true
|  7>     smdsolvent "water"
|  8> end
|  9> * xyz 0 1
| 10> C 2.3964907587212507 0.0656292098402212 -0.0005647404960342843
| 11> C 0.9037683751439693 -0.003159912283677246 0.0013384270655289957
| 12> C 0.13922223864624306 1.1707349302091192 0.001394998633890046
| 13> N -1.1939403031399591 1.1702662082327613 0.00019260731420634773
| 14> C -1.7787041717198038 -0.03736349926906151 -0.0007132870342698137
| 15> C -1.0349024144296426 -1.2052683295316693 -0.0004029457162611434
| 16> N 0.3062338101720944 -1.2035294159715235 0.000529731521845513
| 17> H 2.7561852018947723 0.6422398216026645 0.8580019745877687
| 18> H 2.831441716086836 -0.9340724051881514 0.036294428688693384
| 19> H 2.7552634961982454 0.5744191125829806 -0.9017859831275005
| 20> H 0.6359232095723217 2.138817340093009 0.002613194125118848
| 21> H -2.8646125726847007 -0.07092333113702352 -0.0015200534799475647
| 22> H -1.5301555415247972 -2.173069838521366 -0.000804835515311259
| 23> *
| 24>
| 25>                          ****END OF INPUT****

CARTESIAN COORDINATES (ANGSTROEM)
---------------------------------
  C      2.396491    0.065629   -0.000565
  C      0.903768   -0.003160    0.001338
  C      0.139222    1.170735    0.001395
  N     -1.193940    1.170266    0.000193
  C     -1.778704   -0.037363   -0.000713
  C     -1.034902   -1.205268   -0.000403
  N      0.306234   -1.203529    0.000530
  H      2.756185    0.642240    0.858002
  H      2.831442   -0.934072    0.036294
  H      2.755263    0.574419   -0.901786
  H      0.635923    2.138817    0.002613
  H     -2.864613   -0.070923   -0.001520
  H     -1.530156   -2.173070   -0.000805

 Total Charge           Charge          ....    0
 Multiplicity           Mult            ....    1
 Number of Electrons    NEL             ....   50
 Basis Dimension        Dim             ....  253

ORBITAL ENERGIES
----------------

  NO   OCC          E(Eh)            E(eV)
   0   2.0000     -16.547787      -450.2882
   1   2.0000     -16.544068      -450.1870
   2   2.0000     -12.100202      -329.2632
   3   2.0000     -12.088406      -328.9423
   4   2.0000     -12.087213      -328.9098
   5   2.0000     -12.084914      -328.8472
   6   2.0000     -12.038583      -327.5865
   7   2.0000      -1.557179       -42.3730
   8   2.0000      -1.504008       -40.9261
   9   2.0000      -1.328235       -36.1431
  10   2.0000      -1.235462       -33.6186
  11   2.0000      -1.192197       -32.4413
  12   2.0000      -1.148193       -31.2439
  13   2.0000      -1.052744       -28.6466
  14   2.0000      -0.979156       -26.6442
  15   2.0000      -0.930636       -25.3239
  16   2.0000      -0.884869       -24.0785
  17   2.0000      -0.873335       -23.7647
  18   2.0000      -0.858075       -23.3494
  19   2.0000      -0.839428       -22.8420
  20   2.0000      -0.823250       -22.4018
  21   2.0000      -0.819968       -22.3125
  22   2.0000      -0.779245       -21.2043
  23   2.0000      -0.757833       -20.6217
  24   2.0000      -0.653783       -17.7903
  25   0.0000      -0.344669        -9.3789
  26   0.0000      -0.253108        -6.8874
  27   0.0000      -0.129041        -3.5114
  28   0.0000      -0.063957        -1.7404
  29   0.0000      -0.029831        -0.8117

MULLIKEN ATOMIC CHARGES
-----------------------
   0 C :   -0.393138
   1 C :    0.180078
   2 C :   -0.089678
   3 N :   -0.267192
   4 C :   -0.048160
   5 C :   -0.038708
   6 N :   -0.293697
   7 H :    0.151831
   8 H :    0.139597
   9 H :    0.151603
  10 H :    0.170113
  11 H :    0.169162
  12 H :    0.168190
Sum of atomic charges:    0.0000000

LOEWDIN ATOMIC CHARGES
----------------------
   0 C :   -0.251729
   1 C :   -0.243139
   2 C :   -0.178095
   3 N :    0.111661
   4 C :   -0.218635
   5 C :   -0.207713
   6 N :    0.133380
   7 H :    0.138908
   8 H :    0.130031
   9 H :    0.139226
  10 H :    0.151018
  11 H :    0.147018
  12 H :    0.148069

  Mayer bond orders larger than 0.100000
B(  0-C ,  1-C ) :   0.9369 B(  0-C ,  7-H ) :   0.9645 B(  0-C ,  8-H ) :   0.9866
B(  0-C ,  9-H ) :   0.9615 B(  1-C ,  2-C ) :   1.3766 B(  1-C ,  6-N ) :   1.4912
B(  2-C ,  3-N ) :   1.5300 B(  2-C ,  5-C ) :   0.1035 B(  2-C , 10-H ) :   0.9583
B(  3-N ,  4-C ) :   1.4416 B(  4-C ,  5-C ) :   1.4545 B(  4-C , 11-H ) :   0.9574
B(  5-C ,  6-N ) :   1.4582 B(  5-C , 12-H ) :   0.9578

FINAL SINGLE POINT ENERGY      -303.658396569029

DIPOLE MOMENT
-------------

Method             : SCF
Type of density    : Electron Density
Multiplicity       :   1
Irrep              :   0
Energy             :  -303.6654039915292174 Eh
Relativity type    :
Basis              : AO
                                X                 Y                 Z
Electronic contribution:     -3.984629263      -0.141875093       0.004942060
Nuclear contribution   :      4.313493539       0.190249172      -0.007680939
                        -----------------------------------------
Total Dipole Moment    :      0.328864276       0.048374079      -0.002738879
                        -----------------------------------------
Magnitude (a.u.)       :      0.332414297
Magnitude (Debye)      :      0.844929996

Rotational constants in cm-1:             0.195987             0.090069             0.062424
Rotational constants in MHz :          5875.544947          2700.193779          1871.416282

                             ****ORCA TERMINATED NORMALLY****
TOTAL RUN TIME: 0 days 0 hours 1 minutes 46 seconds 274 msec
