                         Program Version 6.0.0  -   RELEASE  -
|  1> ! wb97x-v def2-tzvp def2/J RIJCOSX DEFGRID2 scfconv7 GCP(DFT/TZ) printgap
|  2> %output
|  3>     printlevel normal
|  4> end
|  5> * xyz 0 1
|  6> C -2.773967587558123 0.08414290097026997 0.0899452416733671
|  7> O -1.4867629200876968 0.5076942667972023 0.6213654404626922
|  8> C -0.4158319175895345 -0.015157950507230386 0.022675905279940144
|  9> O -0.44440145443344625 -0.7903851789418477 -0.9103225850052047
| 10> C 0.847581570346636 0.5018953129344222 0.6893198562332994
| 11> C 2.0391632622469533 0.01351956649792327 0.03398579491117018
| 12> N 2.9934859049969464 -0.3742860897173188 -0.4907016114317005
| 13> H -3.5152220431765544 0.6137456722849349 0.6859690163965871
| 14> H -2.885364863523702 -0.9959909108258677 0.20636864061915777
| 15> H -2.85230054665072 0.36544723298599047 -0.9621870787619046
| 16> H 0.8518599736456173 0.18829014751235737 1.7399898349534453
| 17> H 0.8441257389074014 1.5977885797513687 0.6801767497748468
| 18> *
| 19>
| 20>                          ****END OF INPUT****

CARTESIAN COORDINATES (ANGSTROEM)
---------------------------------
  C     -2.773968    0.084143    0.089945
  O     -1.486763    0.507694    0.621365
  C     -0.415832   -0.015158    0.022676
  O     -0.444401   -0.790385   -0.910323
  C      0.847582    0.501895    0.689320
  C      2.039163    0.013520    0.033986
  N      2.993486   -0.374286   -0.490702
  H     -3.515222    0.613746    0.685969
  H     -2.885365   -0.995991    0.206369
  H     -2.852301    0.365447   -0.962187
  H      0.851860    0.188290    1.739990
  H      0.844126    1.597789    0.680177

 Total Charge           Charge          ....    0
 Multiplicity           Mult            ....    1
 Number of Electrons    NEL             ....   52
 Basis Dimension        Dim             ....  247

ORBITAL ENERGIES
----------------

  NO   OCC          E(Eh)            E(eV)
   0   2.0000     -21.748199      -591.7986
   1   2.0000     -21.683661      -590.0424
   2   2.0000     -16.533155      -449.8900
   3   2.0000     -12.210196      -332.2563
   4   2.0000     -12.124187      -329.9159
   5   2.0000     -12.123689      -329.9023
   6   2.0000     -12.094523      -329.1087
   7   2.0000      -1.790433       -48.7202
   8   2.0000      -1.723654       -46.9030
   9   2.0000      -1.526237       -41.5310
  10   2.0000      -1.355655       -36.8892
  11   2.0000      -1.285633       -34.9839
  12   2.0000      -1.152674       -31.3658
  13   2.0000      -1.090577       -29.6761
  14   2.0000      -1.069939       -29.1145
  15   2.0000      -1.027264       -27.9533
  16   2.0000      -0.997446       -27.1419
  17   2.0000      -0.974098       -26.5066
  18   2.0000      -0.938086       -25.5266
  19   2.0000      -0.901446       -24.5296
  20   2.0000      -0.899071       -24.4650
  21   2.0000      -0.886283       -24.1170
  22   2.0000      -0.863515       -23.4974
  23   2.0000      -0.848170       -23.0799
  24   2.0000      -0.802051       -21.8249
  25   2.0000      -0.795932       -21.6584
  26   0.0000      -0.332949        -9.0600
  27   0.0000      -0.249614        -6.7924
  28   0.0000      -0.223758        -6.0888
  29   0.0000      -0.199369        -5.4251
  30   0.0000      -0.121507        -3.3064

MULLIKEN ATOMIC CHARGES
-----------------------
   0 C :   -0.190520
   1 O :   -0.235721
   2 C :    0.291811
   3 O :   -0.306511
   4 C :   -0.064433
   5 C :   -0.251738
   6 N :    0.010812
   7 H :    0.136435
   8 H :    0.138829
   9 H :    0.139983
  10 H :    0.165003
  11 H :    0.166050
Sum of atomic charges:    0.0000000

LOEWDIN ATOMIC CHARGES
----------------------
   0 C :   -0.272719
   1 O :    0.235566
   2 C :   -0.469465
   3 O :    0.121710
   4 C :   -0.195375
   5 C :   -0.187698
   6 N :    0.070668
   7 H :    0.112900
   8 H :    0.114659
   9 H :    0.114933
  10 H :    0.177875
  11 H :    0.176945

  Mayer bond orders larger than 0.100000
B(  0-C ,  1-O ) :   0.8869 B(  0-C ,  7-H ) :   0.9710 B(  0-C ,  8-H ) :   0.9763
B(  0-C ,  9-H ) :   0.9758 B(  1-O ,  2-C ) :   1.2324 B(  2-C ,  3-O ) :   2.0827
B(  2-C ,  4-C ) :   0.9706 B(  4-C ,  5-C ) :   0.9698 B(  4-C , 10-H ) :   0.9284
B(  4-C , 11-H ) :   0.9330 B(  5-C ,  6-N ) :   3.1434

FINAL SINGLE POINT ENERGY      -360.645962584250

DIPOLE MOMENT
-------------

Method             : SCF
Type of density    : Electron Density
Multiplicity       :   1
Irrep              :   0
Energy             :  -360.6530102765495940 Eh
Relativity type    :
Basis              : AO
                                X                 Y                 Z
Electronic contribution:      5.376250279      -0.801536309      -1.002669425
Nuclear contribution   :     -7.091086222       1.699572467       2.154484434
                        -----------------------------------------
Total Dipole Moment    :     -1.714835943       0.898036159       1.151815009
                        -----------------------------------------
Magnitude (a.u.)       :      2.252511724
Magnitude (Debye)      :      5.725429796

Rotational constants in cm-1:             0.311600             0.047666             0.042011
Rotational constants in MHz :          9341.543707          1428.999890          1259.453608

                             ****ORCA TERMINATED NORMALLY****
TOTAL RUN TIME: 0 days 0 hours 1 minutes 18 seconds 759 msec
