                         Program Version 6.0.0  -   RELEASE  -
|  1> ! wb97x-v def2-tzvp def2/J RIJCOSX DEFGRID2 scfconv7 GCP(DFT/TZ) printgap
|  2> %output
|  3>     printlevel normal
|  4> end
|  5> %cpcm
|  6>     smd true
|  7>     smdsolvent "water"
|  8> end
|  9> * xyz 0 1
| 10> C -2.773967587558123 0.08414290097026997 0.0899452416733671
| 11> O -1.4867629200876968 0.5076942667972023 0.6213654404626922
| 12> C -0.4158319175895345 -0.015157950507230386 0.022675905279940144
| 13> O -0.44440145443344625 -0.7903851789418477 -0.9103225850052047
| 14> C 0.847581570346636 0.5018953129344222 0.6893198562332994
| 15> C 2.0391632622469533 0.01351956649792327 0.03398579491117018
| 16> N 2.9934859049969464 -0.3742860897173188 -0.4907016114317005
| 17> H -3.5152220431765544 0.6137456722849349 0.6859690163965871
| 18> H -2.885364863523702 -0.9959909108258677 0.20636864061915777
| 19> H -2.85230054665072 0.36544723298599047 -0.9621870787619046
| 20> H 0.8518599736456173 0.18829014751235737 1.7399898349534453
| 21> H 0.8441257389074014 1.5977885797513687 0.6801767497748468
| 22> *
| 23>
| 24>                          ****END OF INPUT****

CARTESIAN COORDINATES (ANGSTROEM)
---------------------------------
  C     -2.773968    0.084143    0.089945
  O     -1.486763    0.507694    0.621365
  C     -0.415832   -0.015158    0.022676
  O     -0.444401   -0.790385   -0.910323
  C      0.847582    0.501895    0.689320
  C      2.039163    0.013520    0.033986
  N      2.993486   -0.374286   -0.490702
  H     -3.515222    0.613746    0.685969
  H     -2.885365   -0.995991    0.206369
  H     -2.852301    0.365447   -0.962187
  H      0.851860    0.188290    1.739990
  H      0.844126    1.597789    0.680177

 Total Charge           Charge          ....    0
 Multiplicity           Mult            ....    1
 Number of Electrons    NEL             ....   52
 Basis Dimension        Dim             ....  247

ORBITAL ENERGIES
----------------

  NO   OCC          E(Eh)            E(eV)
   0   2.0000     -21.735456      -591.4518
   1   2.0000     -21.682540      -590.0119
   2   2.0000     -16.539568      -450.0645
   3   2.0000     -12.206571      -332.1577
   4   2.0000     -12.107271      -329.4556
   5   2.0000     -12.102848      -329.3352
   6   2.0000     -12.097588      -329.1921
   7   2.0000      -1.781151       -48.4676
   8   2.0000      -1.720203       -46.8091
   9   2.0000      -1.536969       -41.8231
  10   2.0000      -1.340671       -36.4815
  11   2.0000      -1.268660       -34.5220
  12   2.0000      -1.143054       -31.1041
  13   2.0000      -1.086185       -29.5566
  14   2.0000      -1.059463       -28.8294
  15   2.0000      -1.013172       -27.5698
  16   2.0000      -0.982053       -26.7230
  17   2.0000      -0.963545       -26.2194
  18   2.0000      -0.931390       -25.3444
  19   2.0000      -0.911972       -24.8160
  20   2.0000      -0.890951       -24.2440
  21   2.0000      -0.882860       -24.0238
  22   2.0000      -0.838279       -22.8107
  23   2.0000      -0.823849       -22.4181
  24   2.0000      -0.811613       -22.0851
  25   2.0000      -0.802187       -21.8286
  26   0.0000      -0.321837        -8.7576
  27   0.0000      -0.249855        -6.7989
  28   0.0000      -0.226076        -6.1518
  29   0.0000      -0.180882        -4.9220
  30   0.0000      -0.111564        -3.0358

MULLIKEN ATOMIC CHARGES
-----------------------
   0 C :   -0.226882
   1 O :   -0.248547
   2 C :    0.376653
   3 O :   -0.432164
   4 C :   -0.034018
   5 C :   -0.225360
   6 N :   -0.099532
   7 H :    0.162233
   8 H :    0.156800
   9 H :    0.156427
  10 H :    0.207467
  11 H :    0.206924
Sum of atomic charges:    0.0000000

LOEWDIN ATOMIC CHARGES
----------------------
   0 C :   -0.268708
   1 O :    0.239565
   2 C :   -0.442584
   3 O :    0.054890
   4 C :   -0.171057
   5 C :   -0.163274
   6 N :   -0.001990
   7 H :    0.121729
   8 H :    0.118975
   9 H :    0.118800
  10 H :    0.197479
  11 H :    0.196173

  Mayer bond orders larger than 0.100000
B(  0-C ,  1-O ) :   0.8653 B(  0-C ,  7-H ) :   0.9665 B(  0-C ,  8-H ) :   0.9712
B(  0-C ,  9-H ) :   0.9710 B(  1-O ,  2-C ) :   1.2597 B(  2-C ,  3-O ) :   1.9530
B(  2-C ,  4-C ) :   0.9866 B(  4-C ,  5-C ) :   0.9773 B(  4-C , 10-H ) :   0.9033
B(  4-C , 11-H ) :   0.9078 B(  5-C ,  6-N ) :   3.1395

FINAL SINGLE POINT ENERGY      -360.659780904390

DIPOLE MOMENT
-------------

Method             : SCF
Type of density    : Electron Density
Multiplicity       :   1
Irrep              :   0
Energy             :  -360.6668285966900385 Eh
Relativity type    :
Basis              : AO
                                X                 Y                 Z
Electronic contribution:      4.954795546      -0.403880726      -0.492652262
Nuclear contribution   :     -7.091086222       1.699572467       2.154484434
                        -----------------------------------------
Total Dipole Moment    :     -2.136290676       1.295691741       1.661832172
                        -----------------------------------------
Magnitude (a.u.)       :      3.000706768
Magnitude (Debye)      :      7.627190461

Rotational constants in cm-1:             0.311600             0.047666             0.042011
Rotational constants in MHz :          9341.543707          1428.999890          1259.453608

                             ****ORCA TERMINATED NORMALLY****
TOTAL RUN TIME: 0 days 0 hours 1 minutes 21 seconds 831 msec
