                         Program Version 6.0.0  -   RELEASE  -
|  1> ! r2scan-3c def2/J RI DEFGRID2 scfconv6 printgap
|  2> %output
|  3>     printlevel normal
|  4> end
|  5> * xyz 0 1
|  6> C 3.3019481599 -0.3182156851 0.893943967
|  7> C 1.9389335033 -0.1750343425 0.313485214
|  8> C 1.4278069896 1.0197719537 -0.023558803
|  9> C 0.0921703674 1.2133952934 -0.5470999809
| 10> O -0.3587815604 2.3407958358 -0.7487506723
| 11> C -0.7643826257 -0.0096884083 -0.8192324968
| 12> H -1.2259673989 0.1708723731 -1.7986014385
| 13> C 0.0651465243 -1.2919451636 -0.9189823332
| 14> C 1.1506537475 -1.4301679979 0.145078635
| 15> C -1.9475522724 -0.0090454154 0.1828013149
| 16> C -3.0439589818 -0.9806423468 -0.2487794789
| 17> C -1.5371295044 -0.2883150361 1.6266996786
| 18> H 3.94259377 -0.8506229753 0.1921790403
| 19> H 3.2587634515 -0.9083565461 1.8072380155
| 20> H 3.746179582 0.6489988331 1.1093999678
| 21> H 1.9996795593 1.927684095 0.1159380628
| 22> H -0.5953111039 -2.1579421052 -0.8885553472
| 23> H 0.5532020196 -1.2870848982 -1.8969119973
| 24> H 0.7171787359 -1.6857423755 1.1139706514
| 25> H 1.8203568023 -2.2483320204 -0.1268193315
| 26> H -2.3580746071 1.0082482255 0.1393930543
| 27> H -3.3646502646 -0.7754811464 -1.2671974376
| 28> H -3.9038808317 -0.877645467 0.4084255836
| 29> H -2.6979062304 -2.0094640261 -0.1933658924
| 30> H -2.363865306 -0.0465147627 2.2914243751
| 31> H -0.6835881284 0.322038811 1.9128463138
| 32> H -1.2962044335 -1.3385182564 1.7642805861
| 33> *
| 34>
| 35>                          ****END OF INPUT****

CARTESIAN COORDINATES (ANGSTROEM)
---------------------------------
  C      3.301948   -0.318216    0.893944
  C      1.938934   -0.175034    0.313485
  C      1.427807    1.019772   -0.023559
  C      0.092170    1.213395   -0.547100
  O     -0.358782    2.340796   -0.748751
  C     -0.764383   -0.009688   -0.819232
  H     -1.225967    0.170872   -1.798601
  C      0.065147   -1.291945   -0.918982
  C      1.150654   -1.430168    0.145079
  C     -1.947552   -0.009045    0.182801
  C     -3.043959   -0.980642   -0.248779
  C     -1.537130   -0.288315    1.626700
  H      3.942594   -0.850623    0.192179
  H      3.258763   -0.908357    1.807238
  H      3.746180    0.648999    1.109400
  H      1.999680    1.927684    0.115938
  H     -0.595311   -2.157942   -0.888555
  H      0.553202   -1.287085   -1.896912
  H      0.717179   -1.685742    1.113971
  H      1.820357   -2.248332   -0.126819
  H     -2.358075    1.008248    0.139393
  H     -3.364650   -0.775481   -1.267197
  H     -3.903881   -0.877645    0.408426
  H     -2.697906   -2.009464   -0.193366
  H     -2.363865   -0.046515    2.291424
  H     -0.683588    0.322039    1.912846
  H     -1.296204   -1.338518    1.764281

 Total Charge           Charge          ....    0
 Multiplicity           Mult            ....    1
 Number of Electrons    NEL             ....   84
 Basis Dimension        Dim             ....  294

ORBITAL ENERGIES
----------------

  NO   OCC          E(Eh)            E(eV)
   0   2.0000     -18.919945      -514.8379
   1   2.0000     -10.101833      -274.8849
   2   2.0000     -10.069608      -274.0080
   3   2.0000     -10.046820      -273.3879
   4   2.0000     -10.042386      -273.2672
   5   2.0000     -10.038899      -273.1723
   6   2.0000     -10.038586      -273.1638
   7   2.0000     -10.036625      -273.1105
   8   2.0000     -10.029920      -272.9280
   9   2.0000     -10.018877      -272.6275
  10   2.0000     -10.018224      -272.6097
  11   2.0000      -0.982445       -26.7337
  12   2.0000      -0.823774       -22.4160
  13   2.0000      -0.780033       -21.2258
  14   2.0000      -0.729069       -19.8390
  15   2.0000      -0.700657       -19.0658
  16   2.0000      -0.668816       -18.1994
  17   2.0000      -0.653291       -17.7770
  18   2.0000      -0.596627       -16.2350
  19   2.0000      -0.552443       -15.0327
  20   2.0000      -0.527038       -14.3414
  21   2.0000      -0.476734       -12.9726
  22   2.0000      -0.459187       -12.4951
  23   2.0000      -0.442930       -12.0527
  24   2.0000      -0.420428       -11.4404
  25   2.0000      -0.419492       -11.4150
  26   2.0000      -0.410598       -11.1730
  27   2.0000      -0.390347       -10.6219
  28   2.0000      -0.388768       -10.5789
  29   2.0000      -0.377292       -10.2666
  30   2.0000      -0.365346        -9.9416
  31   2.0000      -0.359253        -9.7758
  32   2.0000      -0.355383        -9.6705
  33   2.0000      -0.347540        -9.4571
  34   2.0000      -0.339048        -9.2260
  35   2.0000      -0.326254        -8.8778
  36   2.0000      -0.312522        -8.5042
  37   2.0000      -0.299137        -8.1399
  38   2.0000      -0.287508        -7.8235
  39   2.0000      -0.280179        -7.6241
  40   2.0000      -0.240731        -6.5506
  41   2.0000      -0.200712        -5.4617
  42   0.0000      -0.078087        -2.1249
  43   0.0000       0.034134         0.9288
  44   0.0000       0.063756         1.7349
  45   0.0000       0.089157         2.4261
  46   0.0000       0.100768         2.7420

MULLIKEN ATOMIC CHARGES
-----------------------
   0 C :   -0.515599
   1 C :    0.188377
   2 C :   -0.290548
   3 C :    0.156739
   4 O :   -0.351693
   5 C :   -0.014787
   6 H :    0.178719
   7 C :   -0.418622
   8 C :   -0.258308
   9 C :   -0.055446
  10 C :   -0.495879
  11 C :   -0.562495
  12 H :    0.169397
  13 H :    0.157845
  14 H :    0.160595
  15 H :    0.169042
  16 H :    0.163654
  17 H :    0.168229
  18 H :    0.179788
  19 H :    0.161947
  20 H :    0.187954
  21 H :    0.152115
  22 H :    0.151136
  23 H :    0.148321
  24 H :    0.154080
  25 H :    0.169019
  26 H :    0.146420
Sum of atomic charges:   -0.0000000

LOEWDIN ATOMIC CHARGES
----------------------
   0 C :   -0.385389
   1 C :   -0.062916
   2 C :   -0.169079
   3 C :    0.226432
   4 O :   -0.483387
   5 C :   -0.190999
   6 H :    0.188247
   7 C :   -0.274815
   8 C :   -0.277557
   9 C :   -0.214694
  10 C :   -0.411911
  11 C :   -0.406930
  12 H :    0.170033
  13 H :    0.167799
  14 H :    0.163617
  15 H :    0.183436
  16 H :    0.162494
  17 H :    0.166428
  18 H :    0.176958
  19 H :    0.166749
  20 H :    0.176701
  21 H :    0.155597
  22 H :    0.156307
  23 H :    0.149079
  24 H :    0.156567
  25 H :    0.162207
  26 H :    0.149024

  Mayer bond orders larger than 0.100000
B(  0-C ,  1-C ) :   0.8361 B(  0-C , 12-H ) :   0.9670 B(  0-C , 13-H ) :   0.9612
B(  0-C , 14-H ) :   0.9929 B(  1-C ,  2-C ) :   1.6361 B(  1-C ,  8-C ) :   0.8615
B(  2-C ,  3-C ) :   1.1437 B(  2-C , 15-H ) :   0.9460 B(  3-C ,  4-O ) :   1.9009
B(  3-C ,  5-C ) :   0.9194 B(  5-C ,  6-H ) :   0.9724 B(  5-C ,  7-C ) :   0.8513
B(  5-C ,  9-C ) :   0.8636 B(  7-C ,  8-C ) :   0.9044 B(  7-C , 16-H ) :   0.9967
B(  7-C , 17-H ) :   0.9867 B(  8-C , 18-H ) :   0.9542 B(  8-C , 19-H ) :   0.9710
B(  9-C , 10-C ) :   0.8834 B(  9-C , 11-C ) :   0.8589 B(  9-C , 20-H ) :   0.9604
B( 10-C , 21-H ) :   0.9828 B( 10-C , 22-H ) :   0.9720 B( 10-C , 23-H ) :   0.9856
B( 11-C , 24-H ) :   0.9641 B( 11-C , 25-H ) :   0.9732 B( 11-C , 26-H ) :   0.9835

Dispersion correction           -0.009900688
FINAL SINGLE POINT ENERGY      -465.791220904031

DIPOLE MOMENT
-------------

Method             : SCF
Type of density    : Electron Density
Multiplicity       :   1
Irrep              :   0
Energy             :  -465.7929766480677927 Eh
Relativity type    :
Basis              : AO
                                X                 Y                 Z
Electronic contribution:      2.971925002       7.979026265      -3.965046029
Nuclear contribution   :     -2.305230312      -9.448147071       4.382935252
                        -----------------------------------------
Total Dipole Moment    :      0.666694690      -1.469120806       0.417889223
                        -----------------------------------------
Magnitude (a.u.)       :      1.666562076
Magnitude (Debye)      :      4.236064153

Rotational constants in cm-1:             0.055547             0.027952             0.023216
Rotational constants in MHz :          1665.260954           837.986909           695.987437

                             ****ORCA TERMINATED NORMALLY****
TOTAL RUN TIME: 0 days 0 hours 0 minutes 40 seconds 906 msec
