                         Program Version 6.0.0  -   RELEASE  -
|  1> ! r2scan-3c def2/J RI DEFGRID2 scfconv6 printgap
|  2> %output
|  3>     printlevel normal
|  4> end
|  5> %cpcm
|  6>     smd true
|  7>     smdsolvent "water"
|  8> end
|  9> * xyz 0 1
| 10> C 3.3019481599 -0.3182156851 0.893943967
| 11> C 1.9389335033 -0.1750343425 0.313485214
| 12> C 1.4278069896 1.0197719537 -0.023558803
| 13> C 0.0921703674 1.2133952934 -0.5470999809
| 14> O -0.3587815604 2.3407958358 -0.7487506723
| 15> C -0.7643826257 -0.0096884083 -0.8192324968
| 16> H -1.2259673989 0.1708723731 -1.7986014385
| 17> C 0.0651465243 -1.2919451636 -0.9189823332
| 18> C 1.1506537475 -1.4301679979 0.145078635
| 19> C -1.9475522724 -0.0090454154 0.1828013149
| 20> C -3.0439589818 -0.9806423468 -0.2487794789
| 21> C -1.5371295044 -0.2883150361 1.6266996786
| 22> H 3.94259377 -0.8506229753 0.1921790403
| 23> H 3.2587634515 -0.9083565461 1.8072380155
| 24> H 3.746179582 0.6489988331 1.1093999678
| 25> H 1.9996795593 1.927684095 0.1159380628
| 26> H -0.5953111039 -2.1579421052 -0.8885553472
| 27> H 0.5532020196 -1.2870848982 -1.8969119973
| 28> H 0.7171787359 -1.6857423755 1.1139706514
| 29> H 1.8203568023 -2.2483320204 -0.1268193315
| 30> H -2.3580746071 1.0082482255 0.1393930543
| 31> H -3.3646502646 -0.7754811464 -1.2671974376
| 32> H -3.9038808317 -0.877645467 0.4084255836
| 33> H -2.6979062304 -2.0094640261 -0.1933658924
| 34> H -2.363865306 -0.0465147627 2.2914243751
| 35> H -0.6835881284 0.322038811 1.9128463138
| 36> H -1.2962044335 -1.3385182564 1.7642805861
| 37> *
| 38>
| 39>                          ****END OF INPUT****

CARTESIAN COORDINATES (ANGSTROEM)
---------------------------------
  C      3.301948   -0.318216    0.893944
  C      1.938934   -0.175034    0.313485
  C      1.427807    1.019772   -0.023559
  C      0.092170    1.213395   -0.547100
  O     -0.358782    2.340796   -0.748751
  C     -0.764383   -0.009688   -0.819232
  H     -1.225967    0.170872   -1.798601
  C      0.065147   -1.291945   -0.918982
  C      1.150654   -1.430168    0.145079
  C     -1.947552   -0.009045    0.182801
  C     -3.043959   -0.980642   -0.248779
  C     -1.537130   -0.288315    1.626700
  H      3.942594   -0.850623    0.192179
  H      3.258763   -0.908357    1.807238
  H      3.746180    0.648999    1.109400
  H      1.999680    1.927684    0.115938
  H     -0.595311   -2.157942   -0.888555
  H      0.553202   -1.287085   -1.896912
  H      0.717179   -1.685742    1.113971
  H      1.820357   -2.248332   -0.126819
  H     -2.358075    1.008248    0.139393
  H     -3.364650   -0.775481   -1.267197
  H     -3.903881   -0.877645    0.408426
  H     -2.697906   -2.009464   -0.193366
  H     -2.363865   -0.046515    2.291424
  H     -0.683588    0.322039    1.912846
  H     -1.296204   -1.338518    1.764281

 Total Charge           Charge          ....    0
 Multiplicity           Mult            ....    1
 Number of Electrons    NEL             ....   84
 Basis Dimension        Dim             ....  294

ORBITAL ENERGIES
----------------

  NO   OCC          E(Eh)            E(eV)
   0   2.0000     -18.935784      -515.2689
   1   2.0000     -10.112074      -275.1635
   2   2.0000     -10.066086      -273.9121
   3   2.0000     -10.033588      -273.0278
   4   2.0000     -10.032119      -272.9878
   5   2.0000     -10.030035      -272.9311
   6   2.0000     -10.024813      -272.7890
   7   2.0000     -10.024756      -272.7875
   8   2.0000     -10.023813      -272.7618
   9   2.0000     -10.008340      -272.3408
  10   2.0000     -10.008237      -272.3380
  11   2.0000      -1.000546       -27.2262
  12   2.0000      -0.815337       -22.1865
  13   2.0000      -0.772297       -21.0153
  14   2.0000      -0.717270       -19.5179
  15   2.0000      -0.694597       -18.9010
  16   2.0000      -0.657425       -17.8894
  17   2.0000      -0.643824       -17.5193
  18   2.0000      -0.586431       -15.9576
  19   2.0000      -0.549188       -14.9442
  20   2.0000      -0.520666       -14.1680
  21   2.0000      -0.466516       -12.6945
  22   2.0000      -0.450626       -12.2622
  23   2.0000      -0.435833       -11.8596
  24   2.0000      -0.424266       -11.5449
  25   2.0000      -0.407429       -11.0867
  26   2.0000      -0.402603       -10.9554
  27   2.0000      -0.387487       -10.5441
  28   2.0000      -0.374002       -10.1771
  29   2.0000      -0.369318       -10.0496
  30   2.0000      -0.355892        -9.6843
  31   2.0000      -0.354399        -9.6437
  32   2.0000      -0.349492        -9.5102
  33   2.0000      -0.342845        -9.3293
  34   2.0000      -0.328970        -8.9517
  35   2.0000      -0.316957        -8.6248
  36   2.0000      -0.302159        -8.2222
  37   2.0000      -0.294079        -8.0023
  38   2.0000      -0.279985        -7.6188
  39   2.0000      -0.274331        -7.4649
  40   2.0000      -0.239022        -6.5041
  41   2.0000      -0.216854        -5.9009
  42   0.0000      -0.080089        -2.1793
  43   0.0000       0.035286         0.9602
  44   0.0000       0.077561         2.1106
  45   0.0000       0.103066         2.8046
  46   0.0000       0.106963         2.9106

MULLIKEN ATOMIC CHARGES
-----------------------
   0 C :   -0.549606
   1 C :    0.209030
   2 C :   -0.359326
   3 C :    0.203704
   4 O :   -0.473556
   5 C :   -0.018239
   6 H :    0.192809
   7 C :   -0.429889
   8 C :   -0.270997
   9 C :   -0.032619
  10 C :   -0.540674
  11 C :   -0.593301
  12 H :    0.193787
  13 H :    0.182087
  14 H :    0.175369
  15 H :    0.187341
  16 H :    0.178774
  17 H :    0.181160
  18 H :    0.205132
  19 H :    0.185014
  20 H :    0.172405
  21 H :    0.161801
  22 H :    0.163023
  23 H :    0.169432
  24 H :    0.164643
  25 H :    0.171534
  26 H :    0.171158
Sum of atomic charges:   -0.0000000

LOEWDIN ATOMIC CHARGES
----------------------
   0 C :   -0.386692
   1 C :   -0.028187
   2 C :   -0.194560
   3 C :    0.232350
   4 O :   -0.580371
   5 C :   -0.189775
   6 H :    0.192508
   7 C :   -0.272630
   8 C :   -0.273404
   9 C :   -0.212099
  10 C :   -0.417997
  11 C :   -0.412701
  12 H :    0.181884
  13 H :    0.178992
  14 H :    0.167806
  15 H :    0.187420
  16 H :    0.169709
  17 H :    0.170296
  18 H :    0.187799
  19 H :    0.177790
  20 H :    0.169673
  21 H :    0.157725
  22 H :    0.158966
  23 H :    0.156485
  24 H :    0.158496
  25 H :    0.162279
  26 H :    0.158239

  Mayer bond orders larger than 0.100000
B(  0-C ,  1-C ) :   0.8432 B(  0-C , 12-H ) :   0.9528 B(  0-C , 13-H ) :   0.9514
B(  0-C , 14-H ) :   0.9895 B(  1-C ,  2-C ) :   1.6173 B(  1-C ,  8-C ) :   0.8686
B(  2-C ,  3-C ) :   1.1330 B(  2-C , 15-H ) :   0.9436 B(  3-C ,  4-O ) :   1.8156
B(  3-C ,  5-C ) :   0.9293 B(  5-C ,  6-H ) :   0.9644 B(  5-C ,  7-C ) :   0.8497
B(  5-C ,  9-C ) :   0.8485 B(  7-C ,  8-C ) :   0.8881 B(  7-C , 16-H ) :   0.9878
B(  7-C , 17-H ) :   0.9873 B(  8-C , 18-H ) :   0.9510 B(  8-C , 19-H ) :   0.9622
B(  9-C , 10-C ) :   0.8787 B(  9-C , 11-C ) :   0.8555 B(  9-C , 20-H ) :   0.9691
B( 10-C , 21-H ) :   0.9800 B( 10-C , 22-H ) :   0.9703 B( 10-C , 23-H ) :   0.9808
B( 11-C , 24-H ) :   0.9621 B( 11-C , 25-H ) :   0.9715 B( 11-C , 26-H ) :   0.9788

Dispersion correction           -0.009900688
FINAL SINGLE POINT ENERGY      -465.800504336054

DIPOLE MOMENT
-------------

Method             : SCF
Type of density    : Electron Density
Multiplicity       :   1
Irrep              :   0
Energy             :  -465.8022600800912301 Eh
Relativity type    :
Basis              : AO
                                X                 Y                 Z
Electronic contribution:      3.389158174       7.050295192      -3.724146813
Nuclear contribution   :     -2.305230312      -9.448147071       4.382935252
                        -----------------------------------------
Total Dipole Moment    :      1.083927862      -2.397851879       0.658788440
                        -----------------------------------------
Magnitude (a.u.)       :      2.712673119
Magnitude (Debye)      :      6.895067109

Rotational constants in cm-1:             0.055547             0.027952             0.023216
Rotational constants in MHz :          1665.260954           837.986909           695.987437

                             ****ORCA TERMINATED NORMALLY****
TOTAL RUN TIME: 0 days 0 hours 0 minutes 52 seconds 199 msec
