                         Program Version 6.0.0  -   RELEASE  -
|  1> ! pbe def2-sv(p) def2/J RI DEFGRID1 loosescf d4 GCP(DFT/SV(P)) printgap
|  2> %output
|  3>     printlevel normal
|  4> end
|  5> * xyz 0 1
|  6> C -2.9839339046 0.7097658474 0.6238468872
|  7> C -1.5059261815 0.325475476 0.6187913424
|  8> H -1.2053055448 0.1175959617 1.6528253402
|  9> C -0.6133441113 1.4520250953 0.0576982962
| 10> C 0.2178806003 0.9841622868 -1.1292340289
| 11> C 1.0729241552 -0.2375351925 -0.7595240332
| 12> H 1.6084967025 -0.5487595451 -1.6620226266
| 13> C 0.1399510069 -1.3911275328 -0.3473506939
| 14> C -1.2894699604 -0.9832655055 -0.1068544588
| 15> O -2.2120813107 -1.7054366843 -0.4371754661
| 16> C 2.121509739 0.1358760385 0.265489671
| 17> C 1.9570378948 0.0414380395 1.5755425478
| 18> C 3.3975290341 0.6558775019 -0.3262744608
| 19> H -3.5836177445 -0.105422319 1.0224676784
| 20> H -3.1416851145 1.5960076702 1.231949638
| 21> H -3.323420672 0.9086577014 -0.3902969935
| 22> H -1.2475448971 2.2814453884 -0.2562515283
| 23> H 0.0555889642 1.8209328224 0.8353619441
| 24> H -0.4447065416 0.7057606152 -1.9527132164
| 25> H 0.8571211798 1.7997671775 -1.468986609
| 26> H 0.1292519104 -2.1730394805 -1.1090536715
| 27> H 0.4960949768 -1.8542391663 0.5752598474
| 28> H 2.7349696545 0.3362684442 2.2593317912
| 29> H 1.0564386962 -0.3323696961 2.0309897055
| 30> H 3.1935472272 1.4663690063 -1.023391321
| 31> H 4.0684435424 1.0186436369 0.4469430835
| 32> H 3.9000321053 -0.1370929478 -0.8790100664
| 33> *
| 34>
| 35>                          ****END OF INPUT****

CARTESIAN COORDINATES (ANGSTROEM)
---------------------------------
  C     -2.983934    0.709766    0.623847
  C     -1.505926    0.325475    0.618791
  H     -1.205306    0.117596    1.652825
  C     -0.613344    1.452025    0.057698
  C      0.217881    0.984162   -1.129234
  C      1.072924   -0.237535   -0.759524
  H      1.608497   -0.548760   -1.662023
  C      0.139951   -1.391128   -0.347351
  C     -1.289470   -0.983266   -0.106854
  O     -2.212081   -1.705437   -0.437175
  C      2.121510    0.135876    0.265490
  C      1.957038    0.041438    1.575543
  C      3.397529    0.655878   -0.326274
  H     -3.583618   -0.105422    1.022468
  H     -3.141685    1.596008    1.231950
  H     -3.323421    0.908658   -0.390297
  H     -1.247545    2.281445   -0.256252
  H      0.055589    1.820933    0.835362
  H     -0.444707    0.705761   -1.952713
  H      0.857121    1.799767   -1.468987
  H      0.129252   -2.173039   -1.109054
  H      0.496095   -1.854239    0.575260
  H      2.734970    0.336268    2.259332
  H      1.056439   -0.332370    2.030990
  H      3.193547    1.466369   -1.023391
  H      4.068444    1.018644    0.446943
  H      3.900032   -0.137093   -0.879010

 Total Charge           Charge          ....    0
 Multiplicity           Mult            ....    1
 Number of Electrons    NEL             ....   84
 Basis Dimension        Dim             ....  186

ORBITAL ENERGIES
----------------

  NO   OCC          E(Eh)            E(eV)
   0   2.0000     -18.736462      -509.8451
   1   2.0000      -9.968088      -271.2455
   2   2.0000      -9.908985      -269.6372
   3   2.0000      -9.907501      -269.5968
   4   2.0000      -9.900737      -269.4127
   5   2.0000      -9.896584      -269.2997
   6   2.0000      -9.891584      -269.1637
   7   2.0000      -9.889625      -269.1104
   8   2.0000      -9.889070      -269.0953
   9   2.0000      -9.881014      -268.8761
  10   2.0000      -9.873714      -268.6774
  11   2.0000      -0.932301       -25.3692
  12   2.0000      -0.773636       -21.0517
  13   2.0000      -0.726045       -19.7567
  14   2.0000      -0.686336       -18.6761
  15   2.0000      -0.660286       -17.9673
  16   2.0000      -0.621888       -16.9224
  17   2.0000      -0.605549       -16.4778
  18   2.0000      -0.552024       -15.0213
  19   2.0000      -0.539615       -14.6837
  20   2.0000      -0.475606       -12.9419
  21   2.0000      -0.454830       -12.3765
  22   2.0000      -0.441495       -12.0137
  23   2.0000      -0.426167       -11.5966
  24   2.0000      -0.423884       -11.5345
  25   2.0000      -0.401420       -10.9232
  26   2.0000      -0.385517       -10.4904
  27   2.0000      -0.380686       -10.3590
  28   2.0000      -0.369559       -10.0562
  29   2.0000      -0.359639        -9.7863
  30   2.0000      -0.351794        -9.5728
  31   2.0000      -0.342877        -9.3301
  32   2.0000      -0.332089        -9.0366
  33   2.0000      -0.330496        -8.9933
  34   2.0000      -0.322452        -8.7744
  35   2.0000      -0.309586        -8.4243
  36   2.0000      -0.307666        -8.3720
  37   2.0000      -0.285831        -7.7779
  38   2.0000      -0.279318        -7.6006
  39   2.0000      -0.277652        -7.5553
  40   2.0000      -0.225837        -6.1453
  41   2.0000      -0.190249        -5.1769
  42   0.0000      -0.049240        -1.3399
  43   0.0000      -0.022842        -0.6216
  44   0.0000       0.025961         0.7064
  45   0.0000       0.046179         1.2566
  46   0.0000       0.057848         1.5741

MULLIKEN ATOMIC CHARGES
-----------------------
   0 C :   -0.222596
   1 C :   -0.180194
   2 H :    0.103723
   3 C :   -0.113255
   4 C :   -0.117603
   5 C :   -0.143361
   6 H :    0.067476
   7 C :   -0.031661
   8 C :   -0.051658
   9 O :   -0.161570
  10 C :   -0.072040
  11 C :   -0.243101
  12 C :   -0.216881
  13 H :    0.109931
  14 H :    0.096659
  15 H :    0.101394
  16 H :    0.086696
  17 H :    0.093134
  18 H :    0.097708
  19 H :    0.087982
  20 H :    0.089949
  21 H :    0.116575
  22 H :    0.086459
  23 H :    0.092602
  24 H :    0.109882
  25 H :    0.099796
  26 H :    0.113953
Sum of atomic charges:    0.0000000

LOEWDIN ATOMIC CHARGES
----------------------
   0 C :   -0.325692
   1 C :   -0.177199
   2 H :    0.139978
   3 C :   -0.216588
   4 C :   -0.209378
   5 C :   -0.130730
   6 H :    0.124214
   7 C :   -0.234795
   8 C :    0.048153
   9 O :   -0.130359
  10 C :   -0.046840
  11 C :   -0.273568
  12 C :   -0.320727
  13 H :    0.125005
  14 H :    0.117446
  15 H :    0.121370
  16 H :    0.123321
  17 H :    0.123943
  18 H :    0.122465
  19 H :    0.119021
  20 H :    0.136160
  21 H :    0.147156
  22 H :    0.121157
  23 H :    0.113961
  24 H :    0.126692
  25 H :    0.124284
  26 H :    0.131550

  Mayer bond orders larger than 0.100000
B(  0-C ,  1-C ) :   1.1294 B(  0-C , 13-H ) :   0.9404 B(  0-C , 14-H ) :   0.9449
B(  0-C , 15-H ) :   0.9503 B(  1-C ,  2-H ) :   0.8461 B(  1-C ,  3-C ) :   1.0508
B(  1-C ,  8-C ) :   0.9749 B(  3-C ,  4-C ) :   1.1865 B(  3-C , 16-H ) :   0.9117
B(  3-C , 17-H ) :   0.8898 B(  4-C ,  5-C ) :   1.1156 B(  4-C , 18-H ) :   0.8899
B(  4-C , 19-H ) :   0.9103 B(  5-C ,  6-H ) :   0.8820 B(  5-C ,  7-C ) :   1.0381
B(  5-C , 10-C ) :   0.9880 B(  7-C ,  8-C ) :   1.0652 B(  7-C , 20-H ) :   0.8822
B(  7-C , 21-H ) :   0.8682 B(  8-C ,  9-O ) :   2.1907 B( 10-C , 11-C ) :   2.0460
B( 10-C , 12-C ) :   1.1192 B( 11-C , 22-H ) :   0.9006 B( 11-C , 23-H ) :   0.8903
B( 12-C , 24-H ) :   0.9288 B( 12-C , 25-H ) :   0.9408 B( 12-C , 26-H ) :   0.9265

Dispersion correction           -0.029404699
FINAL SINGLE POINT ENERGY      -464.821821522996

DIPOLE MOMENT
-------------

Method             : SCF
Type of density    : Electron Density
Multiplicity       :   1
Irrep              :   0
Energy             :  -464.9072795962898681 Eh
Relativity type    :
Basis              : AO
                                X                 Y                 Z
Electronic contribution:     -3.883563877      -5.772095846      -1.134981976
Nuclear contribution   :      4.802230639       6.448552420       1.225707975
                        -----------------------------------------
Total Dipole Moment    :      0.918666762       0.676456573       0.090725999
                        -----------------------------------------
Magnitude (a.u.)       :      1.144453285
Magnitude (Debye)      :      2.908969072

Rotational constants in cm-1:             0.068137             0.024714             0.022596
Rotational constants in MHz :          2042.688290           740.898108           677.417799

                             ****ORCA TERMINATED NORMALLY****
TOTAL RUN TIME: 0 days 0 hours 0 minutes 16 seconds 690 msec
