                         Program Version 6.0.0  -   RELEASE  -
|  1> ! wb97x-v def2-tzvp def2/J RIJCOSX DEFGRID2 scfconv7 GCP(DFT/TZ) printgap
|  2> %output
|  3>     printlevel normal
|  4> end
|  5> * xyz 0 1
|  6> C 1.6782034060596962 -1.203975049518446 0.04761996159589435
|  7> C 0.9249063875035817 -0.00033182427069852863 -0.47794293558300904
|  8> H 0.8988329965363309 -0.0061486408679590964 -1.5759169844224126
|  9> C -0.5310523756174822 -0.014872715179656444 -0.021148923322895495
| 10> F -1.1934058380123815 -1.0910034719033943 -0.5108107570250617
| 11> F -0.6546273079716317 -0.048092302258091496 1.32723283873487
| 12> F -1.1989959906110872 1.0881591686363548 -0.4462340169747092
| 13> O 1.5525396437637986 1.1816312023135818 0.013622437878628187
| 14> H 2.697669914631138 -1.1816867554647585 -0.34334651403259625
| 15> H 1.2036718310319836 -2.1322082507499043 -0.2789572335448691
| 16> H 1.7183160277844687 -1.1872402982021049 1.140249070682865
| 17> H 1.2385382358956711 1.9337687395154133 -0.5066821754203862
| 18> *
| 19>
| 20>                          ****END OF INPUT****

CARTESIAN COORDINATES (ANGSTROEM)
---------------------------------
  C      1.678203   -1.203975    0.047620
  C      0.924906   -0.000332   -0.477943
  H      0.898833   -0.006149   -1.575917
  C     -0.531052   -0.014873   -0.021149
  F     -1.193406   -1.091003   -0.510811
  F     -0.654627   -0.048092    1.327233
  F     -1.198996    1.088159   -0.446234
  O      1.552540    1.181631    0.013622
  H      2.697670   -1.181687   -0.343347
  H      1.203672   -2.132208   -0.278957
  H      1.718316   -1.187240    1.140249
  H      1.238538    1.933769   -0.506682

 Total Charge           Charge          ....    0
 Multiplicity           Mult            ....    1
 Number of Electrons    NEL             ....   58
 Basis Dimension        Dim             ....  247

ORBITAL ENERGIES
----------------

  NO   OCC          E(Eh)            E(eV)
   0   2.0000     -27.600808      -751.0562
   1   2.0000     -27.600620      -751.0511
   2   2.0000     -27.595642      -750.9156
   3   2.0000     -21.699365      -590.4697
   4   2.0000     -12.297504      -334.6321
   5   2.0000     -12.137727      -330.2843
   6   2.0000     -12.057298      -328.0958
   7   2.0000      -2.058949       -56.0269
   8   2.0000      -2.012573       -54.7649
   9   2.0000      -2.008872       -54.6642
  10   2.0000      -1.704133       -46.3718
  11   2.0000      -1.394955       -37.9586
  12   2.0000      -1.305133       -35.5145
  13   2.0000      -1.255777       -34.1714
  14   2.0000      -1.253820       -34.1182
  15   2.0000      -1.203587       -32.7513
  16   2.0000      -1.163919       -31.6719
  17   2.0000      -1.163464       -31.6595
  18   2.0000      -1.151556       -31.3354
  19   2.0000      -1.148375       -31.2489
  20   2.0000      -1.146207       -31.1899
  21   2.0000      -1.144703       -31.1490
  22   2.0000      -1.077017       -29.3071
  23   2.0000      -0.996130       -27.1061
  24   2.0000      -0.968486       -26.3538
  25   2.0000      -0.886803       -24.1311
  26   2.0000      -0.869021       -23.6473
  27   2.0000      -0.838122       -22.8065
  28   2.0000      -0.814877       -22.1739
  29   0.0000      -0.277186        -7.5426
  30   0.0000      -0.264687        -7.2025
  31   0.0000      -0.231562        -6.3011
  32   0.0000      -0.119603        -3.2546
  33   0.0000      -0.063262        -1.7214

MULLIKEN ATOMIC CHARGES
-----------------------
   0 C :   -0.350793
   1 C :    0.054806
   2 H :    0.100276
   3 C :    0.422471
   4 F :   -0.166425
   5 F :   -0.159588
   6 F :   -0.174597
   7 O :   -0.432556
   8 H :    0.127904
   9 H :    0.127847
  10 H :    0.135473
  11 H :    0.315182
Sum of atomic charges:    0.0000000

LOEWDIN ATOMIC CHARGES
----------------------
   0 C :   -0.267009
   1 C :   -0.353979
   2 H :    0.146435
   3 C :   -0.631512
   4 F :    0.180171
   5 F :    0.186298
   6 F :    0.170569
   7 O :    0.002496
   8 H :    0.128419
   9 H :    0.129526
  10 H :    0.131237
  11 H :    0.177347

  Mayer bond orders larger than 0.100000
B(  0-C ,  1-C ) :   0.9824 B(  0-C ,  8-H ) :   0.9726 B(  0-C ,  9-H ) :   0.9681
B(  0-C , 10-H ) :   0.9699 B(  1-C ,  2-H ) :   0.9501 B(  1-C ,  3-C ) :   0.9846
B(  1-C ,  7-O ) :   1.0547 B(  3-C ,  4-F ) :   1.1411 B(  3-C ,  5-F ) :   1.1520
B(  3-C ,  6-F ) :   1.1336 B(  7-O , 11-H ) :   0.8915

FINAL SINGLE POINT ENERGY      -492.139443271953

DIPOLE MOMENT
-------------

Method             : SCF
Type of density    : Electron Density
Multiplicity       :   1
Irrep              :   0
Energy             :  -492.1532663309526470 Eh
Relativity type    :
Basis              : AO
                                X                 Y                 Z
Electronic contribution:     -9.618124895       2.312896168       1.119781182
Nuclear contribution   :     10.129369735      -2.361553674      -1.814949521
                        -----------------------------------------
Total Dipole Moment    :      0.511244841      -0.048657506      -0.695168338
                        -----------------------------------------
Magnitude (a.u.)       :      0.864290379
Magnitude (Debye)      :      2.196851556

Rotational constants in cm-1:             0.115992             0.079556             0.065130
Rotational constants in MHz :          3477.365953          2385.041632          1952.547071

                             ****ORCA TERMINATED NORMALLY****
TOTAL RUN TIME: 0 days 0 hours 1 minutes 11 seconds 608 msec
