                         Program Version 6.0.0  -   RELEASE  -
|  1> ! wb97x-v def2-tzvp def2/J RIJCOSX DEFGRID2 scfconv7 GCP(DFT/TZ) printgap
|  2> %output
|  3>     printlevel normal
|  4> end
|  5> %cpcm
|  6>     smd true
|  7>     smdsolvent "water"
|  8> end
|  9> * xyz 0 1
| 10> C 1.6782034060596962 -1.203975049518446 0.04761996159589435
| 11> C 0.9249063875035817 -0.00033182427069852863 -0.47794293558300904
| 12> H 0.8988329965363309 -0.0061486408679590964 -1.5759169844224126
| 13> C -0.5310523756174822 -0.014872715179656444 -0.021148923322895495
| 14> F -1.1934058380123815 -1.0910034719033943 -0.5108107570250617
| 15> F -0.6546273079716317 -0.048092302258091496 1.32723283873487
| 16> F -1.1989959906110872 1.0881591686363548 -0.4462340169747092
| 17> O 1.5525396437637986 1.1816312023135818 0.013622437878628187
| 18> H 2.697669914631138 -1.1816867554647585 -0.34334651403259625
| 19> H 1.2036718310319836 -2.1322082507499043 -0.2789572335448691
| 20> H 1.7183160277844687 -1.1872402982021049 1.140249070682865
| 21> H 1.2385382358956711 1.9337687395154133 -0.5066821754203862
| 22> *
| 23>
| 24>                          ****END OF INPUT****

CARTESIAN COORDINATES (ANGSTROEM)
---------------------------------
  C      1.678203   -1.203975    0.047620
  C      0.924906   -0.000332   -0.477943
  H      0.898833   -0.006149   -1.575917
  C     -0.531052   -0.014873   -0.021149
  F     -1.193406   -1.091003   -0.510811
  F     -0.654627   -0.048092    1.327233
  F     -1.198996    1.088159   -0.446234
  O      1.552540    1.181631    0.013622
  H      2.697670   -1.181687   -0.343347
  H      1.203672   -2.132208   -0.278957
  H      1.718316   -1.187240    1.140249
  H      1.238538    1.933769   -0.506682

 Total Charge           Charge          ....    0
 Multiplicity           Mult            ....    1
 Number of Electrons    NEL             ....   58
 Basis Dimension        Dim             ....  247

ORBITAL ENERGIES
----------------

  NO   OCC          E(Eh)            E(eV)
   0   2.0000     -27.601322      -751.0702
   1   2.0000     -27.600005      -751.0343
   2   2.0000     -27.599891      -751.0312
   3   2.0000     -21.690742      -590.2351
   4   2.0000     -12.295402      -334.5749
   5   2.0000     -12.123172      -329.8883
   6   2.0000     -12.040755      -327.6456
   7   2.0000      -2.060347       -56.0649
   8   2.0000      -2.013071       -54.7784
   9   2.0000      -2.011805       -54.7440
  10   2.0000      -1.695436       -46.1352
  11   2.0000      -1.393598       -37.9217
  12   2.0000      -1.295252       -35.2456
  13   2.0000      -1.257105       -34.2076
  14   2.0000      -1.256255       -34.1844
  15   2.0000      -1.199476       -32.6394
  16   2.0000      -1.165659       -31.7192
  17   2.0000      -1.165341       -31.7105
  18   2.0000      -1.151927       -31.3455
  19   2.0000      -1.151299       -31.3284
  20   2.0000      -1.148547       -31.2535
  21   2.0000      -1.135451       -30.8972
  22   2.0000      -1.068610       -29.0784
  23   2.0000      -0.989062       -26.9137
  24   2.0000      -0.959771       -26.1167
  25   2.0000      -0.877127       -23.8678
  26   2.0000      -0.854147       -23.2425
  27   2.0000      -0.821760       -22.3612
  28   2.0000      -0.798676       -21.7331
  29   0.0000      -0.277387        -7.5481
  30   0.0000      -0.259455        -7.0601
  31   0.0000      -0.227126        -6.1804
  32   0.0000      -0.108187        -2.9439
  33   0.0000      -0.051246        -1.3945

MULLIKEN ATOMIC CHARGES
-----------------------
   0 C :   -0.388700
   1 C :    0.084106
   2 H :    0.140447
   3 C :    0.419903
   4 F :   -0.176355
   5 F :   -0.176710
   6 F :   -0.180216
   7 O :   -0.525836
   8 H :    0.148261
   9 H :    0.145378
  10 H :    0.138813
  11 H :    0.370910
Sum of atomic charges:    0.0000000

LOEWDIN ATOMIC CHARGES
----------------------
   0 C :   -0.271280
   1 C :   -0.345045
   2 H :    0.161928
   3 C :   -0.627999
   4 F :    0.175022
   5 F :    0.174593
   6 F :    0.166837
   7 O :   -0.029759
   8 H :    0.132937
   9 H :    0.134763
  10 H :    0.129720
  11 H :    0.198285

  Mayer bond orders larger than 0.100000
B(  0-C ,  1-C ) :   0.9821 B(  0-C ,  8-H ) :   0.9694 B(  0-C ,  9-H ) :   0.9651
B(  0-C , 10-H ) :   0.9631 B(  1-C ,  2-H ) :   0.9458 B(  1-C ,  3-C ) :   0.9889
B(  1-C ,  7-O ) :   1.0166 B(  3-C ,  4-F ) :   1.1386 B(  3-C ,  5-F ) :   1.1357
B(  3-C ,  6-F ) :   1.1396 B(  7-O , 11-H ) :   0.8569

FINAL SINGLE POINT ENERGY      -492.146426391752

DIPOLE MOMENT
-------------

Method             : SCF
Type of density    : Electron Density
Multiplicity       :   1
Irrep              :   0
Energy             :  -492.1602494507517349 Eh
Relativity type    :
Basis              : AO
                                X                 Y                 Z
Electronic contribution:     -9.579204652       2.296039844       0.831825236
Nuclear contribution   :     10.129369735      -2.361553674      -1.814949521
                        -----------------------------------------
Total Dipole Moment    :      0.550165083      -0.065513830      -0.983124284
                        -----------------------------------------
Magnitude (a.u.)       :      1.128497691
Magnitude (Debye)      :      2.868413175

Rotational constants in cm-1:             0.115992             0.079556             0.065130
Rotational constants in MHz :          3477.365953          2385.041632          1952.547071

                             ****ORCA TERMINATED NORMALLY****
TOTAL RUN TIME: 0 days 0 hours 1 minutes 22 seconds 390 msec
