                         Program Version 6.0.0  -   RELEASE  -
|  1> ! pbe def2-sv(p) def2/J RI DEFGRID1 loosescf d4 GCP(DFT/SV(P)) printgap
|  2> %output
|  3>     printlevel normal
|  4> end
|  5> * xyz 0 1
|  6> C -3.9800467821 -0.4753103676 -0.001460451
|  7> C -2.529375084 -0.1017656305 -7.98138e-05
|  8> C -2.1687627664 1.2617785331 0.0002588379
|  9> C -0.859046068 1.6461316938 0.0007157992
| 10> C 0.1757041473 0.6868880215 0.000667115
| 11> C 1.538301713 1.04790555 0.0002657421
| 12> C 2.5293695209 0.1017612411 -0.0002089067
| 13> C 2.1687573287 -1.2617824939 0.0002387148
| 14> C 0.8590389898 -1.6461271738 0.0007164449
| 15> C -0.1757002723 -0.6868695024 0.000669965
| 16> C -1.5382974451 -1.0478963199 0.0003411493
| 17> C 3.9800514662 0.4752860431 -0.0013926807
| 18> H -4.471764288 -0.070759213 -0.8849731784
| 19> H -4.1036998774 -1.5548503044 0.0042294793
| 20> H -4.4764368531 -0.0606773459 0.8746736766
| 21> H -2.9529466176 2.0053828064 0.0002581136
| 22> H -0.5950748882 2.6942648509 0.0009915284
| 23> H 1.7908005499 2.09950953 8.23226e-05
| 24> H 2.9529462042 -2.0053821798 0.0001402163
| 25> H 0.5950402391 -2.6942524939 0.0009686399
| 26> H -1.7907688044 -2.0995083783 0.0001651207
| 27> H 4.4749410007 0.065707812 0.8779595605
| 28> H 4.4733094415 0.065743064 -0.8816922363
| 29> H 4.1037164803 1.5548266863 -0.0015253815
| 30> *
| 31>
| 32>                          ****END OF INPUT****

CARTESIAN COORDINATES (ANGSTROEM)
---------------------------------
  C     -3.980047   -0.475310   -0.001460
  C     -2.529375   -0.101766   -0.000080
  C     -2.168763    1.261779    0.000259
  C     -0.859046    1.646132    0.000716
  C      0.175704    0.686888    0.000667
  C      1.538302    1.047906    0.000266
  C      2.529370    0.101761   -0.000209
  C      2.168757   -1.261782    0.000239
  C      0.859039   -1.646127    0.000716
  C     -0.175700   -0.686870    0.000670
  C     -1.538297   -1.047896    0.000341
  C      3.980051    0.475286   -0.001393
  H     -4.471764   -0.070759   -0.884973
  H     -4.103700   -1.554850    0.004229
  H     -4.476437   -0.060677    0.874674
  H     -2.952947    2.005383    0.000258
  H     -0.595075    2.694265    0.000992
  H      1.790801    2.099510    0.000082
  H      2.952946   -2.005382    0.000140
  H      0.595040   -2.694252    0.000969
  H     -1.790769   -2.099508    0.000165
  H      4.474941    0.065708    0.877960
  H      4.473309    0.065743   -0.881692
  H      4.103716    1.554827   -0.001525

 Total Charge           Charge          ....    0
 Multiplicity           Mult            ....    1
 Number of Electrons    NEL             ....   84
 Basis Dimension        Dim             ....  192

ORBITAL ENERGIES
----------------

  NO   OCC          E(Eh)            E(eV)
   0   2.0000      -9.898814      -269.3604
   1   2.0000      -9.898806      -269.3602
   2   2.0000      -9.897485      -269.3243
   3   2.0000      -9.897388      -269.3216
   4   2.0000      -9.888750      -269.0866
   5   2.0000      -9.888734      -269.0861
   6   2.0000      -9.886692      -269.0306
   7   2.0000      -9.886685      -269.0304
   8   2.0000      -9.886204      -269.0173
   9   2.0000      -9.886185      -269.0168
  10   2.0000      -9.882546      -268.9177
  11   2.0000      -9.882539      -268.9176
  12   2.0000      -0.792289       -21.5593
  13   2.0000      -0.750529       -20.4229
  14   2.0000      -0.696041       -18.9403
  15   2.0000      -0.695380       -18.9222
  16   2.0000      -0.646674       -17.5969
  17   2.0000      -0.639935       -17.4135
  18   2.0000      -0.590090       -16.0572
  19   2.0000      -0.555402       -15.1133
  20   2.0000      -0.535012       -14.5584
  21   2.0000      -0.516737       -14.0611
  22   2.0000      -0.455005       -12.3813
  23   2.0000      -0.451362       -12.2822
  24   2.0000      -0.426988       -11.6189
  25   2.0000      -0.394047       -10.7226
  26   2.0000      -0.385998       -10.5035
  27   2.0000      -0.382419       -10.4061
  28   2.0000      -0.380752       -10.3608
  29   2.0000      -0.376134       -10.2351
  30   2.0000      -0.367125        -9.9900
  31   2.0000      -0.345581        -9.4037
  32   2.0000      -0.339351        -9.2342
  33   2.0000      -0.338953        -9.2234
  34   2.0000      -0.332949        -9.0600
  35   2.0000      -0.312160        -8.4943
  36   2.0000      -0.290516        -7.9053
  37   2.0000      -0.283587        -7.7168
  38   2.0000      -0.279235        -7.5984
  39   2.0000      -0.252702        -6.8764
  40   2.0000      -0.212720        -5.7884
  41   2.0000      -0.190136        -5.1739
  42   0.0000      -0.061038        -1.6609
  43   0.0000      -0.036205        -0.9852
  44   0.0000      -0.000131        -0.0036
  45   0.0000       0.049918         1.3583
  46   0.0000       0.050927         1.3858

MULLIKEN ATOMIC CHARGES
-----------------------
   0 C :   -0.222139
   1 C :    0.072060
   2 C :   -0.097636
   3 C :   -0.125348
   4 C :    0.165715
   5 C :   -0.212223
   6 C :    0.072060
   7 C :   -0.097636
   8 C :   -0.125348
   9 C :    0.165699
  10 C :   -0.212220
  11 C :   -0.222130
  12 H :    0.114350
  13 H :    0.101169
  14 H :    0.114121
  15 H :    0.033752
  16 H :    0.035169
  17 H :    0.021020
  18 H :    0.033754
  19 H :    0.035169
  20 H :    0.021019
  21 H :    0.114224
  22 H :    0.114238
  23 H :    0.101160
Sum of atomic charges:   -0.0000000

LOEWDIN ATOMIC CHARGES
----------------------
   0 C :   -0.321796
   1 C :   -0.051301
   2 C :   -0.122068
   3 C :   -0.110531
   4 C :   -0.027080
   5 C :   -0.117662
   6 C :   -0.051297
   7 C :   -0.122067
   8 C :   -0.110531
   9 C :   -0.027078
  10 C :   -0.117663
  11 C :   -0.321804
  12 H :    0.131571
  13 H :    0.123960
  14 H :    0.131440
  15 H :    0.121023
  16 H :    0.122531
  17 H :    0.119914
  18 H :    0.121024
  19 H :    0.122531
  20 H :    0.119913
  21 H :    0.131500
  22 H :    0.131512
  23 H :    0.123959

  Mayer bond orders larger than 0.100000
B(  0-C ,  1-C ) :   1.0960 B(  0-C , 12-H ) :   0.9345 B(  0-C , 13-H ) :   0.9461
B(  0-C , 14-H ) :   0.9346 B(  1-C ,  2-C ) :   1.2603 B(  1-C , 10-C ) :   1.4601
B(  2-C ,  3-C ) :   1.4577 B(  2-C , 15-H ) :   0.9647 B(  3-C ,  4-C ) :   1.2249
B(  3-C , 16-H ) :   0.9654 B(  4-C ,  5-C ) :   1.2198 B(  4-C ,  9-C ) :   1.2600
B(  5-C ,  6-C ) :   1.4601 B(  5-C , 17-H ) :   0.9617 B(  6-C ,  7-C ) :   1.2603
B(  6-C , 11-C ) :   1.0960 B(  7-C ,  8-C ) :   1.4577 B(  7-C , 18-H ) :   0.9648
B(  8-C ,  9-C ) :   1.2249 B(  8-C , 19-H ) :   0.9654 B(  9-C , 10-C ) :   1.2198
B( 10-C , 20-H ) :   0.9617 B( 11-C , 21-H ) :   0.9345 B( 11-C , 22-H ) :   0.9345
B( 11-C , 23-H ) :   0.9461

Dispersion correction           -0.028588695
FINAL SINGLE POINT ENERGY      -463.488310155536

DIPOLE MOMENT
-------------

Method             : SCF
Type of density    : Electron Density
Multiplicity       :   1
Irrep              :   0
Energy             :  -463.5483719234791806 Eh
Relativity type    :
Basis              : AO
                                X                 Y                 Z
Electronic contribution:     -0.000057283      -0.000003228       0.007149465
Nuclear contribution   :      0.000058717       0.000004535      -0.008182842
                        -----------------------------------------
Total Dipole Moment    :      0.000001434       0.000001307      -0.001033377
                        -----------------------------------------
Magnitude (a.u.)       :      0.001033379
Magnitude (Debye)      :      0.002626639

Rotational constants in cm-1:             0.090454             0.019487             0.016129
Rotational constants in MHz :          2711.746034           584.215692           483.533184

                             ****ORCA TERMINATED NORMALLY****
TOTAL RUN TIME: 0 days 0 hours 0 minutes 20 seconds 538 msec
