                         Program Version 6.0.0  -   RELEASE  -
|  1> ! pbe def2-sv(p) def2/J RI DEFGRID1 loosescf d4 GCP(DFT/SV(P)) printgap
|  2> %output
|  3>     printlevel normal
|  4> end
|  5> * xyz 0 1
|  6> C -2.2904360627 -0.9049957169 0.8078699162
|  7> C -0.8379846634 -0.4115691965 0.7481539916
|  8> H -0.5478304413 -0.0672778916 1.7522405052
|  9> C -0.6383952365 0.7366067651 -0.2542144619
| 10> H -0.6722856324 0.3265424148 -1.2729382353
| 11> C 0.7576883847 1.3178651518 -0.0040699634
| 12> H 0.6791271991 1.9490461063 0.896685037
| 13> C 1.7754958439 0.1936373974 0.2828932243
| 14> H 2.6602120488 0.3945100733 -0.3353570613
| 15> C 1.2526971937 -1.1841415846 -0.1509277978
| 16> H 1.93926293 -1.9448991641 0.2517542017
| 17> O -0.0079270629 -1.5113329673 0.3825186759
| 18> O 1.2340082742 -1.2144321396 -1.5439050679
| 19> O 2.1041757326 0.0991970345 1.6451596245
| 20> O 1.2302352039 2.0763797552 -1.0869765472
| 21> O -1.5729680835 1.7756893243 -0.1010386497
| 22> O -2.8922541901 -1.0223020319 -0.4574238789
| 23> H -2.8841917804 -0.177057959 1.3631534426
| 24> H -2.3009203525 -1.85873865 1.3452869156
| 25> H 1.1009808349 -2.1227910717 -1.8558071339
| 26> H 2.658297466 0.8517425316 1.8997347281
| 27> H 0.5604062146 2.7378834921 -1.3161164303
| 28> H -2.4398174869 1.4607410656 -0.3967920962
| 29> H -2.4927549009 -1.7651160783 -0.9291542885
| 30> *
| 31>
| 32>                          ****END OF INPUT****

CARTESIAN COORDINATES (ANGSTROEM)
---------------------------------
  C     -2.290436   -0.904996    0.807870
  C     -0.837985   -0.411569    0.748154
  H     -0.547830   -0.067278    1.752241
  C     -0.638395    0.736607   -0.254214
  H     -0.672286    0.326542   -1.272938
  C      0.757688    1.317865   -0.004070
  H      0.679127    1.949046    0.896685
  C      1.775496    0.193637    0.282893
  H      2.660212    0.394510   -0.335357
  C      1.252697   -1.184142   -0.150928
  H      1.939263   -1.944899    0.251754
  O     -0.007927   -1.511333    0.382519
  O      1.234008   -1.214432   -1.543905
  O      2.104176    0.099197    1.645160
  O      1.230235    2.076380   -1.086977
  O     -1.572968    1.775689   -0.101039
  O     -2.892254   -1.022302   -0.457424
  H     -2.884192   -0.177058    1.363153
  H     -2.300920   -1.858739    1.345287
  H      1.100981   -2.122791   -1.855807
  H      2.658297    0.851743    1.899735
  H      0.560406    2.737883   -1.316116
  H     -2.439817    1.460741   -0.396792
  H     -2.492755   -1.765116   -0.929154

 Total Charge           Charge          ....    0
 Multiplicity           Mult            ....    1
 Number of Electrons    NEL             ....   96
 Basis Dimension        Dim             ....  192

ORBITAL ENERGIES
----------------

  NO   OCC          E(Eh)            E(eV)
   0   2.0000     -18.762716      -510.5594
   1   2.0000     -18.759451      -510.4706
   2   2.0000     -18.757592      -510.4200
   3   2.0000     -18.756346      -510.3861
   4   2.0000     -18.751243      -510.2473
   5   2.0000     -18.740939      -509.9669
   6   2.0000      -9.982790      -271.6455
   7   2.0000      -9.941152      -270.5125
   8   2.0000      -9.934493      -270.3313
   9   2.0000      -9.934145      -270.3218
  10   2.0000      -9.933949      -270.3165
  11   2.0000      -9.930827      -270.2315
  12   2.0000      -0.976132       -26.5619
  13   2.0000      -0.937979       -25.5237
  14   2.0000      -0.934628       -25.4325
  15   2.0000      -0.927411       -25.2361
  16   2.0000      -0.912684       -24.8354
  17   2.0000      -0.907040       -24.6818
  18   2.0000      -0.698762       -19.0143
  19   2.0000      -0.686978       -18.6936
  20   2.0000      -0.624293       -16.9879
  21   2.0000      -0.575517       -15.6606
  22   2.0000      -0.561017       -15.2661
  23   2.0000      -0.520157       -14.1542
  24   2.0000      -0.496922       -13.5219
  25   2.0000      -0.485825       -13.2200
  26   2.0000      -0.471033       -12.8175
  27   2.0000      -0.451243       -12.2789
  28   2.0000      -0.439416       -11.9571
  29   2.0000      -0.434590       -11.8258
  30   2.0000      -0.423376       -11.5206
  31   2.0000      -0.390518       -10.6265
  32   2.0000      -0.372087       -10.1250
  33   2.0000      -0.365171        -9.9368
  34   2.0000      -0.362257        -9.8575
  35   2.0000      -0.352134        -9.5820
  36   2.0000      -0.333872        -9.0851
  37   2.0000      -0.310533        -8.4500
  38   2.0000      -0.302935        -8.2433
  39   2.0000      -0.290556        -7.9064
  40   2.0000      -0.276745        -7.5306
  41   2.0000      -0.260670        -7.0932
  42   2.0000      -0.246690        -6.7128
  43   2.0000      -0.241833        -6.5806
  44   2.0000      -0.229120        -6.2347
  45   2.0000      -0.221824        -6.0361
  46   2.0000      -0.210380        -5.7247
  47   2.0000      -0.201393        -5.4802
  48   0.0000       0.015589         0.4242
  49   0.0000       0.023985         0.6527
  50   0.0000       0.031317         0.8522
  51   0.0000       0.045362         1.2344
  52   0.0000       0.065555         1.7838

MULLIKEN ATOMIC CHARGES
-----------------------
   0 C :    0.042738
   1 C :   -0.003363
   2 H :    0.063209
   3 C :    0.059307
   4 H :    0.053558
   5 C :    0.073850
   6 H :    0.047207
   7 C :    0.038284
   8 H :    0.083856
   9 C :    0.164206
  10 H :    0.065110
  11 O :   -0.324372
  12 O :   -0.380268
  13 O :   -0.417357
  14 O :   -0.414159
  15 O :   -0.421155
  16 O :   -0.441682
  17 H :    0.089425
  18 H :    0.093067
  19 H :    0.301410
  20 H :    0.307774
  21 H :    0.303537
  22 H :    0.313878
  23 H :    0.301939
Sum of atomic charges:   -0.0000000

LOEWDIN ATOMIC CHARGES
----------------------
   0 C :   -0.133499
   1 C :   -0.075885
   2 H :    0.109561
   3 C :   -0.091117
   4 H :    0.105816
   5 C :   -0.066896
   6 H :    0.100747
   7 C :   -0.074001
   8 H :    0.119675
   9 C :   -0.000434
  10 H :    0.099784
  11 O :   -0.158439
  12 O :   -0.307167
  13 O :   -0.313219
  14 O :   -0.319945
  15 O :   -0.323169
  16 O :   -0.337322
  17 H :    0.115584
  18 H :    0.109667
  19 H :    0.285512
  20 H :    0.291222
  21 H :    0.286521
  22 H :    0.289150
  23 H :    0.287854

  Mayer bond orders larger than 0.100000
B(  0-C ,  1-C ) :   1.0332 B(  0-C , 16-O ) :   1.0559 B(  0-C , 17-H ) :   0.9155
B(  0-C , 18-H ) :   0.9237 B(  1-C ,  2-H ) :   0.8714 B(  1-C ,  3-C ) :   1.0268
B(  1-C , 11-O ) :   0.9839 B(  3-C ,  4-H ) :   0.8174 B(  3-C ,  5-C ) :   1.1014
B(  3-C , 15-O ) :   1.0897 B(  5-C ,  6-H ) :   0.8749 B(  5-C ,  7-C ) :   0.9705
B(  5-C , 14-O ) :   1.0919 B(  7-C ,  8-H ) :   0.8709 B(  7-C ,  9-C ) :   1.0560
B(  7-C , 13-O ) :   1.0515 B(  9-C , 10-H ) :   0.8944 B(  9-C , 11-O ) :   1.0541
B(  9-C , 12-O ) :   1.1502 B( 12-O , 19-H ) :   0.8439 B( 13-O , 20-H ) :   0.8476
B( 14-O , 21-H ) :   0.8427 B( 15-O , 22-H ) :   0.8338 B( 16-O , 23-H ) :   0.8468

Dispersion correction           -0.024755163
FINAL SINGLE POINT ENERGY      -685.692908530550

DIPOLE MOMENT
-------------

Method             : SCF
Type of density    : Electron Density
Multiplicity       :   1
Irrep              :   0
Energy             :  -685.8226973918801832 Eh
Relativity type    :
Basis              : AO
                                X                 Y                 Z
Electronic contribution:      1.620172436      -0.161337489      -1.347717317
Nuclear contribution   :     -1.630548587      -0.199085749       1.298751965
                        -----------------------------------------
Total Dipole Moment    :     -0.010376151      -0.360423239      -0.048965352
                        -----------------------------------------
Magnitude (a.u.)       :      0.363882098
Magnitude (Debye)      :      0.924914789

Rotational constants in cm-1:             0.040869             0.026718             0.022039
Rotational constants in MHz :          1225.227837           800.990257           660.701609

                             ****ORCA TERMINATED NORMALLY****
TOTAL RUN TIME: 0 days 0 hours 0 minutes 11 seconds 939 msec
