                         Program Version 6.0.0  -   RELEASE  -
|  1> ! pbe def2-sv(p) def2/J RI DEFGRID1 loosescf d4 GCP(DFT/SV(P)) printgap
|  2> %output
|  3>     printlevel normal
|  4> end
|  5> * xyz 0 1
|  6> C 2.0224749913 0.0384398552 -0.000423977
|  7> C 0.7413663117 -0.7863158142 0.0005415807
|  8> C -0.4919634766 0.0829363451 8.4495e-05
|  9> O -0.4759373959 1.2916337412 0.0001732818
| 10> O -1.6608850123 -0.563025953 -0.0003224154
| 11> H 2.0588188586 0.6794300527 0.8766503503
| 12> H 2.8904947464 -0.6138708179 0.0005620507
| 13> H 2.0589737321 0.6770595662 -0.8792439406
| 14> H 0.7077055756 -1.4261157171 -0.8842315353
| 15> H 0.7080378654 -1.4243439175 0.8866096927
| 16> H -1.5774354991 -1.5341162354 -0.0003875972
| 17> *
| 18>
| 19>                          ****END OF INPUT****

CARTESIAN COORDINATES (ANGSTROEM)
---------------------------------
  C      2.022475    0.038440   -0.000424
  C      0.741366   -0.786316    0.000542
  C     -0.491963    0.082936    0.000084
  O     -0.475937    1.291634    0.000173
  O     -1.660885   -0.563026   -0.000322
  H      2.058819    0.679430    0.876650
  H      2.890495   -0.613871    0.000562
  H      2.058974    0.677060   -0.879244
  H      0.707706   -1.426116   -0.884232
  H      0.708038   -1.424344    0.886610
  H     -1.577435   -1.534116   -0.000388

 Total Charge           Charge          ....    0
 Multiplicity           Mult            ....    1
 Number of Electrons    NEL             ....   40
 Basis Dimension        Dim             ....   82

ORBITAL ENERGIES
----------------

  NO   OCC          E(Eh)            E(eV)
   0   2.0000     -18.798699      -511.5386
   1   2.0000     -18.735684      -509.8239
   2   2.0000     -10.011454      -272.4255
   3   2.0000      -9.913036      -269.7474
   4   2.0000      -9.885007      -268.9847
   5   2.0000      -1.002701       -27.2849
   6   2.0000      -0.915021       -24.8990
   7   2.0000      -0.712653       -19.3923
   8   2.0000      -0.595941       -16.2164
   9   2.0000      -0.561517       -15.2797
  10   2.0000      -0.460722       -12.5369
  11   2.0000      -0.439558       -11.9610
  12   2.0000      -0.392219       -10.6728
  13   2.0000      -0.371750       -10.1158
  14   2.0000      -0.366830        -9.9819
  15   2.0000      -0.332380        -9.0445
  16   2.0000      -0.317670        -8.6442
  17   2.0000      -0.310166        -8.4400
  18   2.0000      -0.270971        -7.3735
  19   2.0000      -0.221259        -6.0208
  20   0.0000      -0.022524        -0.6129
  21   0.0000       0.004200         0.1143
  22   0.0000       0.044621         1.2142
  23   0.0000       0.086266         2.3474
  24   0.0000       0.096695         2.6312

MULLIKEN ATOMIC CHARGES
-----------------------
   0 C :   -0.262746
   1 C :   -0.282154
   2 C :    0.124160
   3 O :   -0.175806
   4 O :   -0.288539
   5 H :    0.118981
   6 H :    0.101064
   7 H :    0.118931
   8 H :    0.115385
   9 H :    0.115484
  10 H :    0.315239
Sum of atomic charges:    0.0000000

LOEWDIN ATOMIC CHARGES
----------------------
   0 C :   -0.334994
   1 C :   -0.284172
   2 C :    0.026172
   3 O :   -0.145635
   4 O :   -0.208855
   5 H :    0.128909
   6 H :    0.120784
   7 H :    0.128885
   8 H :    0.135462
   9 H :    0.135533
  10 H :    0.297911

  Mayer bond orders larger than 0.100000
B(  0-C ,  1-C ) :   1.1631 B(  0-C ,  5-H ) :   0.9550 B(  0-C ,  6-H ) :   0.9449
B(  0-C ,  7-H ) :   0.9550 B(  1-C ,  2-C ) :   0.9978 B(  1-C ,  8-H ) :   0.9022
B(  1-C ,  9-H ) :   0.9021 B(  2-C ,  3-O ) :   2.1422 B(  2-C ,  4-O ) :   1.2185
B(  4-O , 10-H ) :   0.8300

Dispersion correction           -0.006534512
FINAL SINGLE POINT ENERGY      -267.813280098698

DIPOLE MOMENT
-------------

Method             : SCF
Type of density    : Electron Density
Multiplicity       :   1
Irrep              :   0
Energy             :  -267.8573295838971262 Eh
Relativity type    :
Basis              : AO
                                X                 Y                 Z
Electronic contribution:     -5.966697386       1.860189865       0.000191311
Nuclear contribution   :      6.391569208      -3.405970200      -0.000040660
                        -----------------------------------------
Total Dipole Moment    :      0.424871822      -1.545780335       0.000150651
                        -----------------------------------------
Magnitude (a.u.)       :      1.603107274
Magnitude (Debye)      :      4.074774863

Rotational constants in cm-1:             0.335818             0.129657             0.096913
Rotational constants in MHz :         10067.559179          3887.031344          2905.367903

                             ****ORCA TERMINATED NORMALLY****
TOTAL RUN TIME: 0 days 0 hours 0 minutes 5 seconds 69 msec
