                         Program Version 6.0.0  -   RELEASE  -
|  1> ! pbe def2-sv(p) def2/J RI DEFGRID1 loosescf d4 GCP(DFT/SV(P)) printgap
|  2> %output
|  3>     printlevel normal
|  4> end
|  5> * xyz 0 1
|  6> C -4.7807379139 -0.8095943354 0.1367429575
|  7> N -3.4208959911 -0.8525363373 -0.3513018006
|  8> C -2.4560427479 -0.0491750213 0.1040191626
|  9> O -2.5894780521 0.8159905187 0.9496552932
| 10> O -1.2773537442 -0.3543830445 -0.5045026613
| 11> C -0.1497962871 0.4380885557 -0.2968966407
| 12> C -0.2046228838 1.8057826816 -0.3215424717
| 13> C 0.9692130809 2.5563456891 -0.1566086025
| 14> C 2.173552697 1.9368696122 0.0172523305
| 15> C 2.2610414949 0.5288992071 0.0368574727
| 16> C 1.0813897403 -0.2448153952 -0.120041643
| 17> C 1.1722465082 -1.6514830586 -0.0943513371
| 18> C 2.380213769 -2.2676118714 0.0800467164
| 19> C 3.5490930561 -1.506487502 0.2330532833
| 20> C 3.4903420004 -0.140974419 0.2119465084
| 21> H -5.0493842046 -1.7629986739 0.590076667
| 22> H -5.4656986422 -0.587759181 -0.6805120217
| 23> H -4.8417423289 -0.0225933834 0.8856707019
| 24> H -3.1805156499 -1.5297800091 -1.0591973756
| 25> H -1.1504582388 2.3072424045 -0.4545712459
| 26> H 0.9015259638 3.6327963039 -0.1734694885
| 27> H 3.0763394106 2.514980098 0.1425090483
| 28> H 0.2683176543 -2.2283753327 -0.2140982882
| 29> H 2.4410955744 -3.3449364378 0.1013941829
| 30> H 4.4943781413 -2.009406216 0.3686889803
| 31> H 4.38608828 0.4503106278 0.3293415791
| 32> *
| 33>
| 34>                          ****END OF INPUT****

CARTESIAN COORDINATES (ANGSTROEM)
---------------------------------
  C     -4.780738   -0.809594    0.136743
  N     -3.420896   -0.852536   -0.351302
  C     -2.456043   -0.049175    0.104019
  O     -2.589478    0.815991    0.949655
  O     -1.277354   -0.354383   -0.504503
  C     -0.149796    0.438089   -0.296897
  C     -0.204623    1.805783   -0.321542
  C      0.969213    2.556346   -0.156609
  C      2.173553    1.936870    0.017252
  C      2.261041    0.528899    0.036857
  C      1.081390   -0.244815   -0.120042
  C      1.172247   -1.651483   -0.094351
  C      2.380214   -2.267612    0.080047
  C      3.549093   -1.506488    0.233053
  C      3.490342   -0.140974    0.211947
  H     -5.049384   -1.762999    0.590077
  H     -5.465699   -0.587759   -0.680512
  H     -4.841742   -0.022593    0.885671
  H     -3.180516   -1.529780   -1.059197
  H     -1.150458    2.307242   -0.454571
  H      0.901526    3.632796   -0.173469
  H      3.076339    2.514980    0.142509
  H      0.268318   -2.228375   -0.214098
  H      2.441096   -3.344936    0.101394
  H      4.494378   -2.009406    0.368689
  H      4.386088    0.450311    0.329342

 Total Charge           Charge          ....    0
 Multiplicity           Mult            ....    1
 Number of Electrons    NEL             ....  106
 Basis Dimension        Dim             ....  232

ORBITAL ENERGIES
----------------

  NO   OCC          E(Eh)            E(eV)
   0   2.0000     -18.807272      -511.7719
   1   2.0000     -18.720550      -509.4121
   2   2.0000     -14.028240      -381.7278
   3   2.0000     -10.027448      -272.8607
   4   2.0000      -9.954268      -270.8694
   5   2.0000      -9.926665      -270.1183
   6   2.0000      -9.903478      -269.4873
   7   2.0000      -9.903128      -269.4778
   8   2.0000      -9.893616      -269.2190
   9   2.0000      -9.893564      -269.2176
  10   2.0000      -9.893169      -269.2068
  11   2.0000      -9.892882      -269.1990
  12   2.0000      -9.892384      -269.1855
  13   2.0000      -9.890329      -269.1295
  14   2.0000      -9.890222      -269.1266
  15   2.0000      -1.012616       -27.5547
  16   2.0000      -0.915846       -24.9214
  17   2.0000      -0.850917       -23.1546
  18   2.0000      -0.793940       -21.6042
  19   2.0000      -0.744526       -20.2596
  20   2.0000      -0.702519       -19.1165
  21   2.0000      -0.668627       -18.1943
  22   2.0000      -0.664083       -18.0706
  23   2.0000      -0.635642       -17.2967
  24   2.0000      -0.578608       -15.7447
  25   2.0000      -0.556872       -15.1533
  26   2.0000      -0.552951       -15.0466
  27   2.0000      -0.535108       -14.5610
  28   2.0000      -0.500883       -13.6297
  29   2.0000      -0.467202       -12.7132
  30   2.0000      -0.448758       -12.2113
  31   2.0000      -0.439472       -11.9586
  32   2.0000      -0.435175       -11.8417
  33   2.0000      -0.425568       -11.5803
  34   2.0000      -0.402009       -10.9392
  35   2.0000      -0.394249       -10.7281
  36   2.0000      -0.383054       -10.4234
  37   2.0000      -0.380441       -10.3523
  38   2.0000      -0.373825       -10.1723
  39   2.0000      -0.362579        -9.8663
  40   2.0000      -0.356153        -9.6914
  41   2.0000      -0.353152        -9.6097
  42   2.0000      -0.341597        -9.2953
  43   2.0000      -0.328092        -8.9278
  44   2.0000      -0.305848        -8.3226
  45   2.0000      -0.298115        -8.1121
  46   2.0000      -0.292488        -7.9590
  47   2.0000      -0.276673        -7.5287
  48   2.0000      -0.244587        -6.6555
  49   2.0000      -0.229783        -6.2527
  50   2.0000      -0.223316        -6.0767
  51   2.0000      -0.219913        -5.9841
  52   2.0000      -0.189996        -5.1701
  53   0.0000      -0.066927        -1.8212
  54   0.0000      -0.038589        -1.0500
  55   0.0000      -0.003971        -0.1081
  56   0.0000       0.024120         0.6563
  57   0.0000       0.028493         0.7753

MULLIKEN ATOMIC CHARGES
-----------------------
   0 C :   -0.175813
   1 N :   -0.280148
   2 C :    0.190003
   3 O :   -0.231216
   4 O :   -0.254482
   5 C :    0.200000
   6 C :   -0.126774
   7 C :   -0.045648
   8 C :   -0.113887
   9 C :    0.135144
  10 C :    0.100331
  11 C :   -0.127332
  12 C :   -0.038668
  13 C :   -0.037633
  14 C :   -0.130823
  15 H :    0.117099
  16 H :    0.116511
  17 H :    0.142325
  18 H :    0.233533
  19 H :    0.055729
  20 H :    0.055136
  21 H :    0.036282
  22 H :    0.037283
  23 H :    0.051241
  24 H :    0.052175
  25 H :    0.039630
Sum of atomic charges:   -0.0000000

LOEWDIN ATOMIC CHARGES
----------------------
   0 C :   -0.256015
   1 N :   -0.167628
   2 C :    0.033494
   3 O :   -0.201390
   4 O :   -0.057731
   5 C :    0.054198
   6 C :   -0.136161
   7 C :   -0.117688
   8 C :   -0.121457
   9 C :   -0.022477
  10 C :   -0.035093
  11 C :   -0.111035
  12 C :   -0.124305
  13 C :   -0.124865
  14 C :   -0.109968
  15 H :    0.119018
  16 H :    0.118928
  17 H :    0.139957
  18 H :    0.238023
  19 H :    0.135336
  20 H :    0.126789
  21 H :    0.123770
  22 H :    0.123908
  23 H :    0.123789
  24 H :    0.124151
  25 H :    0.124450

  Mayer bond orders larger than 0.100000
B(  0-C ,  1-N ) :   1.0195 B(  0-C , 15-H ) :   0.9586 B(  0-C , 16-H ) :   0.9588
B(  0-C , 17-H ) :   0.9373 B(  1-N ,  2-C ) :   1.2360 B(  1-N , 18-H ) :   0.8590
B(  2-C ,  3-O ) :   2.0229 B(  2-C ,  4-O ) :   1.0568 B(  4-O ,  5-C ) :   1.0336
B(  5-C ,  6-C ) :   1.4563 B(  5-C , 10-C ) :   1.2487 B(  6-C ,  7-C ) :   1.2263
B(  6-C , 19-H ) :   0.9541 B(  7-C ,  8-C ) :   1.4392 B(  7-C , 20-H ) :   0.9622
B(  8-C ,  9-C ) :   1.2356 B(  8-C , 21-H ) :   0.9682 B(  9-C , 10-C ) :   1.2618
B(  9-C , 14-C ) :   1.2436 B( 10-C , 11-C ) :   1.2631 B( 11-C , 12-C ) :   1.4430
B( 11-C , 22-H ) :   0.9601 B( 12-C , 13-C ) :   1.2579 B( 12-C , 23-H ) :   0.9632
B( 13-C , 14-C ) :   1.4599 B( 13-C , 24-H ) :   0.9625 B( 14-C , 25-H ) :   0.9647

Dispersion correction           -0.031942155
FINAL SINGLE POINT ENERGY      -667.736526413898

DIPOLE MOMENT
-------------

Method             : SCF
Type of density    : Electron Density
Multiplicity       :   1
Irrep              :   0
Energy             :  -667.8129930209153144 Eh
Relativity type    :
Basis              : AO
                                X                 Y                 Z
Electronic contribution:      3.455037141       1.663541041      -0.504821738
Nuclear contribution   :     -3.941368532      -2.418814647      -0.149353423
                        -----------------------------------------
Total Dipole Moment    :     -0.486331390      -0.755273606      -0.654175161
                        -----------------------------------------
Magnitude (a.u.)       :      1.111261257
Magnitude (Debye)      :      2.824601642

Rotational constants in cm-1:             0.042002             0.012525             0.009968
Rotational constants in MHz :          1259.183772           375.495405           298.836520

                             ****ORCA TERMINATED NORMALLY****
TOTAL RUN TIME: 0 days 0 hours 0 minutes 12 seconds 162 msec
