                         Program Version 6.0.0  -   RELEASE  -
|  1> ! wb97x-v def2-tzvp def2/J RIJCOSX DEFGRID2 scfconv7 GCP(DFT/TZ) printgap
|  2> %output
|  3>     printlevel normal
|  4> end
|  5> * xyz 0 1
|  6> N 0.7378778020418799 1.792372415436338e-05 -0.10890660856581505
|  7> N -0.737872616164372 1.7745729340475465e-05 0.10889339352338982
|  8> H 1.0691364563693213 0.7950318377006415 0.4353702938272577
|  9> H 1.0691381762559422 -0.7949868688009553 0.43537955782588916
| 10> H -1.0691248867958283 -0.7950360500562748 -0.43532803823425714
| 11> H -1.0691405686099764 0.7949835116261221 -0.43544771424122625
| 12> *
| 13>
| 14>                          ****END OF INPUT****

CARTESIAN COORDINATES (ANGSTROEM)
---------------------------------
  N      0.737878    0.000018   -0.108907
  N     -0.737873    0.000018    0.108893
  H      1.069136    0.795032    0.435370
  H      1.069138   -0.794987    0.435380
  H     -1.069125   -0.795036   -0.435328
  H     -1.069141    0.794984   -0.435448

 Total Charge           Charge          ....    0
 Multiplicity           Mult            ....    1
 Number of Electrons    NEL             ....   18
 Basis Dimension        Dim             ....   86

ORBITAL ENERGIES
----------------

  NO   OCC          E(Eh)            E(eV)
   0   2.0000     -16.534707      -449.9322
   1   2.0000     -16.534375      -449.9232
   2   2.0000      -1.513969       -41.1972
   3   2.0000      -1.317260       -35.8445
   4   2.0000      -0.996088       -27.1049
   5   2.0000      -0.948349       -25.8059
   6   2.0000      -0.895561       -24.3695
   7   2.0000      -0.845453       -23.0059
   8   2.0000      -0.712641       -19.3920
   9   0.0000      -0.188091        -5.1182
  10   0.0000      -0.035123        -0.9557
  11   0.0000       0.013932         0.3791
  12   0.0000       0.016776         0.4565
  13   0.0000       0.029415         0.8004

MULLIKEN ATOMIC CHARGES
-----------------------
   0 N :   -0.432214
   1 N :   -0.432215
   2 H :    0.216108
   3 H :    0.216106
   4 H :    0.216106
   5 H :    0.216108
Sum of atomic charges:   -0.0000000

LOEWDIN ATOMIC CHARGES
----------------------
   0 N :   -0.270288
   1 N :   -0.270288
   2 H :    0.135144
   3 H :    0.135143
   4 H :    0.135144
   5 H :    0.135144

  Mayer bond orders larger than 0.100000
B(  0-N ,  1-N ) :   0.9436 B(  0-N ,  2-H ) :   0.9509 B(  0-N ,  3-H ) :   0.9509
B(  1-N ,  4-H ) :   0.9509 B(  1-N ,  5-H ) :   0.9509

FINAL SINGLE POINT ENERGY      -111.867101093381

DIPOLE MOMENT
-------------

Method             : SCF
Type of density    : Electron Density
Multiplicity       :   1
Irrep              :   0
Energy             :  -111.8709758000807710 Eh
Relativity type    :
Basis              : AO
                                X                 Y                 Z
Electronic contribution:      0.000000507       0.000019140       0.000000151
Nuclear contribution   :     -0.000000979      -0.000064688       0.000000434
                        -----------------------------------------
Total Dipole Moment    :     -0.000000473      -0.000045549       0.000000585
                        -----------------------------------------
Magnitude (a.u.)       :      0.000045555
Magnitude (Debye)      :      0.000115792

Rotational constants in cm-1:             4.634476             0.804362             0.751999
Rotational constants in MHz :        138938.107356         24114.157256         22544.353060

                             ****ORCA TERMINATED NORMALLY****
TOTAL RUN TIME: 0 days 0 hours 0 minutes 12 seconds 427 msec
