                         Program Version 6.0.0  -   RELEASE  -
|  1> ! wb97x-v def2-tzvp def2/J RIJCOSX DEFGRID2 scfconv7 GCP(DFT/TZ) printgap
|  2> %output
|  3>     printlevel normal
|  4> end
|  5> %cpcm
|  6>     smd true
|  7>     smdsolvent "water"
|  8> end
|  9> * xyz 0 1
| 10> N 0.7378778020418799 1.792372415436338e-05 -0.10890660856581505
| 11> N -0.737872616164372 1.7745729340475465e-05 0.10889339352338982
| 12> H 1.0691364563693213 0.7950318377006415 0.4353702938272577
| 13> H 1.0691381762559422 -0.7949868688009553 0.43537955782588916
| 14> H -1.0691248867958283 -0.7950360500562748 -0.43532803823425714
| 15> H -1.0691405686099764 0.7949835116261221 -0.43544771424122625
| 16> *
| 17>
| 18>                          ****END OF INPUT****

CARTESIAN COORDINATES (ANGSTROEM)
---------------------------------
  N      0.737878    0.000018   -0.108907
  N     -0.737873    0.000018    0.108893
  H      1.069136    0.795032    0.435370
  H      1.069138   -0.794987    0.435380
  H     -1.069125   -0.795036   -0.435328
  H     -1.069141    0.794984   -0.435448

 Total Charge           Charge          ....    0
 Multiplicity           Mult            ....    1
 Number of Electrons    NEL             ....   18
 Basis Dimension        Dim             ....   86

ORBITAL ENERGIES
----------------

  NO   OCC          E(Eh)            E(eV)
   0   2.0000     -16.529054      -449.7784
   1   2.0000     -16.528734      -449.7697
   2   2.0000      -1.507516       -41.0216
   3   2.0000      -1.310004       -35.6470
   4   2.0000      -0.988768       -26.9058
   5   2.0000      -0.942066       -25.6349
   6   2.0000      -0.887973       -24.1630
   7   2.0000      -0.843653       -22.9570
   8   2.0000      -0.710195       -19.3254
   9   0.0000      -0.183467        -4.9924
  10   0.0000      -0.018705        -0.5090
  11   0.0000       0.034061         0.9268
  12   0.0000       0.036393         0.9903
  13   0.0000       0.047318         1.2876

MULLIKEN ATOMIC CHARGES
-----------------------
   0 N :   -0.506459
   1 N :   -0.506460
   2 H :    0.253230
   3 H :    0.253230
   4 H :    0.253230
   5 H :    0.253229
Sum of atomic charges:   -0.0000000

LOEWDIN ATOMIC CHARGES
----------------------
   0 N :   -0.292313
   1 N :   -0.292313
   2 H :    0.146157
   3 H :    0.146156
   4 H :    0.146157
   5 H :    0.146156

  Mayer bond orders larger than 0.100000
B(  0-N ,  1-N ) :   0.9089 B(  0-N ,  2-H ) :   0.9351 B(  0-N ,  3-H ) :   0.9351
B(  1-N ,  4-H ) :   0.9351 B(  1-N ,  5-H ) :   0.9351

FINAL SINGLE POINT ENERGY      -111.876519173584

DIPOLE MOMENT
-------------

Method             : SCF
Type of density    : Electron Density
Multiplicity       :   1
Irrep              :   0
Energy             :  -111.8803938802836058 Eh
Relativity type    :
Basis              : AO
                                X                 Y                 Z
Electronic contribution:      0.000000391       0.000005972       0.000000263
Nuclear contribution   :     -0.000000979      -0.000064688       0.000000434
                        -----------------------------------------
Total Dipole Moment    :     -0.000000588      -0.000058716       0.000000697
                        -----------------------------------------
Magnitude (a.u.)       :      0.000058723
Magnitude (Debye)      :      0.000149262

Rotational constants in cm-1:             4.634476             0.804362             0.751999
Rotational constants in MHz :        138938.107356         24114.157256         22544.353060

                             ****ORCA TERMINATED NORMALLY****
TOTAL RUN TIME: 0 days 0 hours 0 minutes 12 seconds 678 msec
