                         Program Version 6.0.0  -   RELEASE  -
|  1> ! wb97x-v def2-tzvp def2/J RIJCOSX DEFGRID2 scfconv7 GCP(DFT/TZ) printgap
|  2> %output
|  3>     printlevel normal
|  4> end
|  5> * xyz 0 1
|  6> C -2.419915140868937 -1.0232354625462534 0.7939627534996593
|  7> C -1.732140244852723 0.01736411334037636 -0.04862422954705061
|  8> C -2.4679731484021645 0.8787640616403168 -0.769403437386095
|  9> C -0.24734637869892276 0.03783624792872962 -0.03642697062974282
| 10> C 0.4702111946062735 -0.8701126796084634 0.7595887362568948
| 11> C 1.8630947670359073 -0.8669806936003872 0.7854465280504181
| 12> C 2.5787398475809717 0.04399782050377621 0.01660172334285703
| 13> C 1.8834354207849935 0.9531649580240121 -0.7814842416034781
| 14> C 0.4957130492838049 0.9496723279684898 -0.8085170506436208
| 15> H -2.1644395588823904 -0.9109570916043024 1.8539552518752405
| 16> H -3.5036707174989186 -0.9395799685336645 0.6923582007850735
| 17> H -2.123022593072867 -2.036413370569464 0.49973985190225645
| 18> H -2.035852906944698 1.6539760463908089 -1.392652077855554
| 19> H -3.5520257891104525 0.8231132491365042 -0.7460867962003015
| 20> H -0.056853148068046644 -1.5929173721999783 1.371170624878454
| 21> H 2.387154915911089 -1.5829356688533307 1.4112935781832514
| 22> H 3.663985876963316 0.04786914997276876 0.035505176306532105
| 23> H 2.4273903798047205 1.6703848280568914 -1.3886893349421991
| 24> H -0.009831238643832044 1.668413528200227 -1.443681197817304
| 25> *
| 26>
| 27>                          ****END OF INPUT****

CARTESIAN COORDINATES (ANGSTROEM)
---------------------------------
  C     -2.419915   -1.023235    0.793963
  C     -1.732140    0.017364   -0.048624
  C     -2.467973    0.878764   -0.769403
  C     -0.247346    0.037836   -0.036427
  C      0.470211   -0.870113    0.759589
  C      1.863095   -0.866981    0.785447
  C      2.578740    0.043998    0.016602
  C      1.883435    0.953165   -0.781484
  C      0.495713    0.949672   -0.808517
  H     -2.164440   -0.910957    1.853955
  H     -3.503671   -0.939580    0.692358
  H     -2.123023   -2.036413    0.499740
  H     -2.035853    1.653976   -1.392652
  H     -3.552026    0.823113   -0.746087
  H     -0.056853   -1.592917    1.371171
  H      2.387155   -1.582936    1.411294
  H      3.663986    0.047869    0.035505
  H      2.427390    1.670385   -1.388689
  H     -0.009831    1.668414   -1.443681

 Total Charge           Charge          ....    0
 Multiplicity           Mult            ....    1
 Number of Electrons    NEL             ....   64
 Basis Dimension        Dim             ....  339

ORBITAL ENERGIES
----------------

  NO   OCC          E(Eh)            E(eV)
   0   2.0000     -12.065921      -328.3304
   1   2.0000     -12.063550      -328.2659
   2   2.0000     -12.053457      -327.9912
   3   2.0000     -12.053237      -327.9853
   4   2.0000     -12.051734      -327.9443
   5   2.0000     -12.050953      -327.9231
   6   2.0000     -12.050023      -327.8978
   7   2.0000     -12.043647      -327.7243
   8   2.0000     -12.038677      -327.5891
   9   2.0000      -1.387795       -37.7638
  10   2.0000      -1.329887       -36.1881
  11   2.0000      -1.273845       -34.6631
  12   2.0000      -1.261189       -34.3187
  13   2.0000      -1.190192       -32.3868
  14   2.0000      -1.121556       -30.5191
  15   2.0000      -1.103053       -30.0156
  16   2.0000      -1.026664       -27.9369
  17   2.0000      -0.964040       -26.2329
  18   2.0000      -0.954224       -25.9657
  19   2.0000      -0.925217       -25.1764
  20   2.0000      -0.899398       -24.4739
  21   2.0000      -0.879036       -23.9198
  22   2.0000      -0.874979       -23.8094
  23   2.0000      -0.838696       -22.8221
  24   2.0000      -0.831964       -22.6389
  25   2.0000      -0.815094       -22.1798
  26   2.0000      -0.806529       -21.9468
  27   2.0000      -0.796137       -21.6640
  28   2.0000      -0.774660       -21.0796
  29   2.0000      -0.684507       -18.6264
  30   2.0000      -0.639126       -17.3915
  31   2.0000      -0.609361       -16.5815
  32   0.0000      -0.267473        -7.2783
  33   0.0000      -0.235367        -6.4047
  34   0.0000      -0.169747        -4.6190
  35   0.0000      -0.055444        -1.5087
  36   0.0000      -0.050559        -1.3758

MULLIKEN ATOMIC CHARGES
-----------------------
   0 C :   -0.364282
   1 C :    0.013196
   2 C :   -0.248253
   3 C :    0.207637
   4 C :   -0.199245
   5 C :   -0.139876
   6 C :   -0.122123
   7 C :   -0.117166
   8 C :   -0.201672
   9 H :    0.127189
  10 H :    0.115964
  11 H :    0.128129
  12 H :    0.106571
  13 H :    0.112168
  14 H :    0.131802
  15 H :    0.115848
  16 H :    0.117871
  17 H :    0.116332
  18 H :    0.099911
Sum of atomic charges:    0.0000000

LOEWDIN ATOMIC CHARGES
----------------------
   0 C :   -0.253360
   1 C :   -0.182002
   2 C :   -0.172171
   3 C :   -0.104625
   4 C :   -0.105176
   5 C :   -0.140292
   6 C :   -0.140265
   7 C :   -0.139731
   8 C :   -0.093497
   9 H :    0.126472
  10 H :    0.125255
  11 H :    0.126534
  12 H :    0.116947
  13 H :    0.120898
  14 H :    0.146994
  15 H :    0.141717
  16 H :    0.140803
  17 H :    0.141900
  18 H :    0.143599

  Mayer bond orders larger than 0.100000
B(  0-C ,  1-C ) :   0.9588 B(  0-C ,  9-H ) :   0.9755 B(  0-C , 10-H ) :   0.9808
B(  0-C , 11-H ) :   0.9772 B(  1-C ,  2-C ) :   1.8899 B(  1-C ,  3-C ) :   0.9604
B(  2-C , 12-H ) :   0.9607 B(  2-C , 13-H ) :   0.9678 B(  3-C ,  4-C ) :   1.3534
B(  3-C ,  8-C ) :   1.3406 B(  4-C ,  5-C ) :   1.4603 B(  4-C , 14-H ) :   0.9554
B(  5-C ,  6-C ) :   1.4442 B(  5-C , 15-H ) :   0.9736 B(  6-C ,  7-C ) :   1.3977
B(  6-C , 16-H ) :   0.9728 B(  7-C ,  8-C ) :   1.4941 B(  7-C , 17-H ) :   0.9736
B(  8-C , 18-H ) :   0.9724

FINAL SINGLE POINT ENERGY      -348.971936876824

DIPOLE MOMENT
-------------

Method             : SCF
Type of density    : Electron Density
Multiplicity       :   1
Irrep              :   0
Energy             :  -348.9824425376240242 Eh
Relativity type    :
Basis              : AO
                                X                 Y                 Z
Electronic contribution:      4.679927921       1.057249969      -0.779968735
Nuclear contribution   :     -4.666712916      -1.143837739       0.850983137
                        -----------------------------------------
Total Dipole Moment    :      0.013215005      -0.086587771       0.071014402
                        -----------------------------------------
Magnitude (a.u.)       :      0.112761357
Magnitude (Debye)      :      0.286616592

Rotational constants in cm-1:             0.120146             0.040543             0.030487
Rotational constants in MHz :          3601.895456          1215.434028           913.972099

                             ****ORCA TERMINATED NORMALLY****
TOTAL RUN TIME: 0 days 0 hours 3 minutes 15 seconds 145 msec
