                         Program Version 6.0.0  -   RELEASE  -
|  1> ! wb97x-v def2-tzvp def2/J RIJCOSX DEFGRID2 scfconv7 GCP(DFT/TZ) printgap
|  2> %output
|  3>     printlevel normal
|  4> end
|  5> %cpcm
|  6>     smd true
|  7>     smdsolvent "water"
|  8> end
|  9> * xyz 0 1
| 10> C -2.419915140868937 -1.0232354625462534 0.7939627534996593
| 11> C -1.732140244852723 0.01736411334037636 -0.04862422954705061
| 12> C -2.4679731484021645 0.8787640616403168 -0.769403437386095
| 13> C -0.24734637869892276 0.03783624792872962 -0.03642697062974282
| 14> C 0.4702111946062735 -0.8701126796084634 0.7595887362568948
| 15> C 1.8630947670359073 -0.8669806936003872 0.7854465280504181
| 16> C 2.5787398475809717 0.04399782050377621 0.01660172334285703
| 17> C 1.8834354207849935 0.9531649580240121 -0.7814842416034781
| 18> C 0.4957130492838049 0.9496723279684898 -0.8085170506436208
| 19> H -2.1644395588823904 -0.9109570916043024 1.8539552518752405
| 20> H -3.5036707174989186 -0.9395799685336645 0.6923582007850735
| 21> H -2.123022593072867 -2.036413370569464 0.49973985190225645
| 22> H -2.035852906944698 1.6539760463908089 -1.392652077855554
| 23> H -3.5520257891104525 0.8231132491365042 -0.7460867962003015
| 24> H -0.056853148068046644 -1.5929173721999783 1.371170624878454
| 25> H 2.387154915911089 -1.5829356688533307 1.4112935781832514
| 26> H 3.663985876963316 0.04786914997276876 0.035505176306532105
| 27> H 2.4273903798047205 1.6703848280568914 -1.3886893349421991
| 28> H -0.009831238643832044 1.668413528200227 -1.443681197817304
| 29> *
| 30>
| 31>                          ****END OF INPUT****

CARTESIAN COORDINATES (ANGSTROEM)
---------------------------------
  C     -2.419915   -1.023235    0.793963
  C     -1.732140    0.017364   -0.048624
  C     -2.467973    0.878764   -0.769403
  C     -0.247346    0.037836   -0.036427
  C      0.470211   -0.870113    0.759589
  C      1.863095   -0.866981    0.785447
  C      2.578740    0.043998    0.016602
  C      1.883435    0.953165   -0.781484
  C      0.495713    0.949672   -0.808517
  H     -2.164440   -0.910957    1.853955
  H     -3.503671   -0.939580    0.692358
  H     -2.123023   -2.036413    0.499740
  H     -2.035853    1.653976   -1.392652
  H     -3.552026    0.823113   -0.746087
  H     -0.056853   -1.592917    1.371171
  H      2.387155   -1.582936    1.411294
  H      3.663986    0.047869    0.035505
  H      2.427390    1.670385   -1.388689
  H     -0.009831    1.668414   -1.443681

 Total Charge           Charge          ....    0
 Multiplicity           Mult            ....    1
 Number of Electrons    NEL             ....   64
 Basis Dimension        Dim             ....  339

ORBITAL ENERGIES
----------------

  NO   OCC          E(Eh)            E(eV)
   0   2.0000     -12.064109      -328.2811
   1   2.0000     -12.062527      -328.2380
   2   2.0000     -12.050759      -327.9178
   3   2.0000     -12.050480      -327.9102
   4   2.0000     -12.049198      -327.8753
   5   2.0000     -12.048304      -327.8510
   6   2.0000     -12.047300      -327.8237
   7   2.0000     -12.033637      -327.4519
   8   2.0000     -12.032956      -327.4334
   9   2.0000      -1.387284       -37.7499
  10   2.0000      -1.327454       -36.1219
  11   2.0000      -1.272331       -34.6219
  12   2.0000      -1.259304       -34.2674
  13   2.0000      -1.183238       -32.1976
  14   2.0000      -1.119134       -30.4532
  15   2.0000      -1.100565       -29.9479
  16   2.0000      -1.023067       -27.8391
  17   2.0000      -0.959532       -26.1102
  18   2.0000      -0.952334       -25.9143
  19   2.0000      -0.920502       -25.0481
  20   2.0000      -0.894785       -24.3483
  21   2.0000      -0.873993       -23.7826
  22   2.0000      -0.870618       -23.6907
  23   2.0000      -0.830117       -22.5886
  24   2.0000      -0.827106       -22.5067
  25   2.0000      -0.807249       -21.9664
  26   2.0000      -0.800943       -21.7948
  27   2.0000      -0.790526       -21.5113
  28   2.0000      -0.775023       -21.0894
  29   2.0000      -0.683707       -18.6046
  30   2.0000      -0.639226       -17.3942
  31   2.0000      -0.609112       -16.5748
  32   0.0000      -0.267261        -7.2725
  33   0.0000      -0.235067        -6.3965
  34   0.0000      -0.168567        -4.5869
  35   0.0000      -0.054648        -1.4870
  36   0.0000      -0.043031        -1.1709

MULLIKEN ATOMIC CHARGES
-----------------------
   0 C :   -0.390654
   1 C :   -0.020257
   2 C :   -0.332878
   3 C :    0.175621
   4 C :   -0.229008
   5 C :   -0.184938
   6 C :   -0.165541
   7 C :   -0.162104
   8 C :   -0.239511
   9 H :    0.144850
  10 H :    0.141889
  11 H :    0.144920
  12 H :    0.153549
  13 H :    0.156201
  14 H :    0.172386
  15 H :    0.159790
  16 H :    0.162010
  17 H :    0.160370
  18 H :    0.153305
Sum of atomic charges:    0.0000000

LOEWDIN ATOMIC CHARGES
----------------------
   0 C :   -0.255443
   1 C :   -0.192932
   2 C :   -0.186179
   3 C :   -0.117880
   4 C :   -0.110004
   5 C :   -0.148993
   6 C :   -0.148812
   7 C :   -0.148970
   8 C :   -0.103523
   9 H :    0.131918
  10 H :    0.129952
  11 H :    0.131726
  12 H :    0.125522
  13 H :    0.128431
  14 H :    0.157174
  15 H :    0.151480
  16 H :    0.150451
  17 H :    0.151597
  18 H :    0.154483

  Mayer bond orders larger than 0.100000
B(  0-C ,  1-C ) :   0.9736 B(  0-C ,  9-H ) :   0.9687 B(  0-C , 10-H ) :   0.9754
B(  0-C , 11-H ) :   0.9704 B(  1-C ,  2-C ) :   1.8742 B(  1-C ,  3-C ) :   0.9506
B(  2-C , 12-H ) :   0.9605 B(  2-C , 13-H ) :   0.9660 B(  3-C ,  4-C ) :   1.3412
B(  3-C ,  8-C ) :   1.3190 B(  4-C ,  5-C ) :   1.4362 B(  4-C , 14-H ) :   0.9624
B(  5-C ,  6-C ) :   1.4202 B(  5-C , 15-H ) :   0.9787 B(  6-C ,  7-C ) :   1.3773
B(  6-C , 16-H ) :   0.9745 B(  7-C ,  8-C ) :   1.4732 B(  7-C , 17-H ) :   0.9773
B(  8-C , 18-H ) :   0.9741

FINAL SINGLE POINT ENERGY      -348.973725406535

DIPOLE MOMENT
-------------

Method             : SCF
Type of density    : Electron Density
Multiplicity       :   1
Irrep              :   0
Energy             :  -348.9842310673354291 Eh
Relativity type    :
Basis              : AO
                                X                 Y                 Z
Electronic contribution:      4.690206796       1.010398556      -0.740105477
Nuclear contribution   :     -4.666712916      -1.143837739       0.850983137
                        -----------------------------------------
Total Dipole Moment    :      0.023493880      -0.133439184       0.110877660
                        -----------------------------------------
Magnitude (a.u.)       :      0.175076651
Magnitude (Debye)      :      0.445009481

Rotational constants in cm-1:             0.120146             0.040543             0.030487
Rotational constants in MHz :          3601.895456          1215.434028           913.972099

                             ****ORCA TERMINATED NORMALLY****
TOTAL RUN TIME: 0 days 0 hours 3 minutes 6 seconds 909 msec
