                         Program Version 6.0.0  -   RELEASE  -
|  1> ! pbe def2-sv(p) def2/J RI DEFGRID1 loosescf d4 GCP(DFT/SV(P)) printgap
|  2> %output
|  3>     printlevel normal
|  4> end
|  5> * xyz 0 1
|  6> C -0.9208759196 1.3817440402 -0.4485578365
|  7> C -0.4735496958 9.614e-06 -2.46762e-05
|  8> C -0.9206127752 -1.0794374197 -0.972321464
|  9> C -0.9207211611 -0.3024699821 1.4208778619
| 10> Cl 1.3613975148 6.39586e-05 8.256e-06
| 11> H -0.5510309008 1.5994002388 -1.4472119504
| 12> H -2.0071561852 1.4196730659 -0.4612362132
| 13> H -0.5515564367 2.1443695984 0.2322413854
| 14> H -0.5503109903 -2.0530131479 -0.6616498129
| 15> H -2.0068803496 -1.1098381508 -0.9986357503
| 16> H -0.5515557862 -0.8708798051 -1.9732108139
| 17> H -2.0070075431 -0.3103564906 1.4602211654
| 18> H -0.5506971724 0.4536065239 2.1085635428
| 19> H -0.5514240452 -1.2733794155 1.7409392421
| 20> *
| 21>
| 22>                          ****END OF INPUT****

CARTESIAN COORDINATES (ANGSTROEM)
---------------------------------
  C     -0.920876    1.381744   -0.448558
  C     -0.473550    0.000010   -0.000025
  C     -0.920613   -1.079437   -0.972321
  C     -0.920721   -0.302470    1.420878
  Cl     1.361398    0.000064    0.000008
  H     -0.551031    1.599400   -1.447212
  H     -2.007156    1.419673   -0.461236
  H     -0.551556    2.144370    0.232241
  H     -0.550311   -2.053013   -0.661650
  H     -2.006880   -1.109838   -0.998636
  H     -0.551556   -0.870880   -1.973211
  H     -2.007008   -0.310356    1.460221
  H     -0.550697    0.453607    2.108564
  H     -0.551424   -1.273379    1.740939

 Total Charge           Charge          ....    0
 Multiplicity           Mult            ....    1
 Number of Electrons    NEL             ....   50
 Basis Dimension        Dim             ....   92

ORBITAL ENERGIES
----------------

  NO   OCC          E(Eh)            E(eV)
   0   2.0000    -100.607205     -2737.6612
   1   2.0000      -9.963074      -271.1090
   2   2.0000      -9.885712      -269.0039
   3   2.0000      -9.885669      -269.0027
   4   2.0000      -9.885651      -269.0022
   5   2.0000      -9.143117      -248.7969
   6   2.0000      -6.974287      -189.7800
   7   2.0000      -6.962971      -189.4721
   8   2.0000      -6.962970      -189.4721
   9   2.0000      -0.785505       -21.3747
  10   2.0000      -0.684016       -18.6130
  11   2.0000      -0.628363       -17.0986
  12   2.0000      -0.628352       -17.0983
  13   2.0000      -0.490063       -13.3353
  14   2.0000      -0.423756       -11.5310
  15   2.0000      -0.407471       -11.0878
  16   2.0000      -0.407454       -11.0874
  17   2.0000      -0.359601        -9.7852
  18   2.0000      -0.359593        -9.7850
  19   2.0000      -0.331366        -9.0169
  20   2.0000      -0.311660        -8.4807
  21   2.0000      -0.311646        -8.4803
  22   2.0000      -0.310066        -8.4373
  23   2.0000      -0.240210        -6.5365
  24   2.0000      -0.240209        -6.5364
  25   0.0000       0.001138         0.0310
  26   0.0000       0.031007         0.8437
  27   0.0000       0.089637         2.4391
  28   0.0000       0.089708         2.4411
  29   0.0000       0.096476         2.6253

MULLIKEN ATOMIC CHARGES
-----------------------
   0 C :   -0.177440
   1 C :   -0.298776
   2 C :   -0.177523
   3 C :   -0.177876
   4 Cl:   -0.133787
   5 H :    0.110699
   6 H :    0.100481
   7 H :    0.110598
   8 H :    0.110662
   9 H :    0.100400
  10 H :    0.110643
  11 H :    0.100582
  12 H :    0.110656
  13 H :    0.110679
Sum of atomic charges:   -0.0000000

LOEWDIN ATOMIC CHARGES
----------------------
   0 C :   -0.334767
   1 C :   -0.129607
   2 C :   -0.334769
   3 C :   -0.334822
   4 Cl:    0.021030
   5 H :    0.123781
   6 H :    0.123415
   7 H :    0.123787
   8 H :    0.123774
   9 H :    0.123391
  10 H :    0.123778
  11 H :    0.123424
  12 H :    0.123779
  13 H :    0.123807

  Mayer bond orders larger than 0.100000
B(  0-C ,  1-C ) :   1.0664 B(  0-C ,  5-H ) :   0.9441 B(  0-C ,  6-H ) :   0.9357
B(  0-C ,  7-H ) :   0.9441 B(  1-C ,  2-C ) :   1.0664 B(  1-C ,  3-C ) :   1.0666
B(  1-C ,  4-Cl) :   0.9956 B(  2-C ,  8-H ) :   0.9441 B(  2-C ,  9-H ) :   0.9357
B(  2-C , 10-H ) :   0.9442 B(  3-C , 11-H ) :   0.9356 B(  3-C , 12-H ) :   0.9440
B(  3-C , 13-H ) :   0.9442

Dispersion correction           -0.011256158
FINAL SINGLE POINT ENERGY      -617.308271820176

DIPOLE MOMENT
-------------

Method             : SCF
Type of density    : Electron Density
Multiplicity       :   1
Irrep              :   0
Energy             :  -617.3536630462992889 Eh
Relativity type    :
Basis              : AO
                                X                 Y                 Z
Electronic contribution:      9.809573458       0.000393945       0.000116298
Nuclear contribution   :    -10.578128998      -0.000477607       0.000008428
                        -----------------------------------------
Total Dipole Moment    :     -0.768555540      -0.000083663       0.000124727
                        -----------------------------------------
Magnitude (a.u.)       :      0.768555554
Magnitude (Debye)      :      1.953512971

Rotational constants in cm-1:             0.151977             0.100090             0.100086
Rotational constants in MHz :          4556.147130          3000.614398          3000.503463

                             ****ORCA TERMINATED NORMALLY****
TOTAL RUN TIME: 0 days 0 hours 0 minutes 8 seconds 659 msec
