                         Program Version 6.0.0  -   RELEASE  -
|  1> ! pbe def2-sv(p) def2/J RI DEFGRID1 loosescf d4 GCP(DFT/SV(P)) printgap
|  2> %output
|  3>     printlevel normal
|  4> end
|  5> * xyz 0 1
|  6> C -2.2631927641 -1.1221869003 0.0581137378
|  7> C -0.8682741684 -0.5605314661 0.3444275571
|  8> H -0.8284009697 -0.2948311471 1.4120325156
|  9> C -0.5557390809 0.6893233342 -0.4905303781
| 10> H -0.475667058 0.3970537085 -1.5449918789
| 11> C 0.8031212183 1.2756796712 -0.0419224554
| 12> H 0.6313584519 2.0005914185 0.7611735719
| 13> C 1.7188619118 0.1669039062 0.52462575
| 14> H 2.7545216798 0.4366064684 0.2755636129
| 15> C 1.3934565524 -1.1665248865 -0.1689326051
| 16> H 2.030241948 -1.9729160725 0.2290596274
| 17> O 0.0780603542 -1.5933833146 0.0829474757
| 18> O 1.6317934718 -0.9861639125 -1.5329491324
| 19> O 1.5315390585 0.0951032101 1.9133581461
| 20> O 1.4385865103 1.9899928526 -1.0673428856
| 21> O -1.5898015325 1.634144515 -0.4528731405
| 22> O -3.1799807491 -0.4455705504 0.8845967887
| 23> H -2.2398420439 -2.1951986809 0.2866240122
| 24> H -2.5070168496 -0.9813000078 -1.001111277
| 25> H 1.4767270702 -1.8171226523 -2.00839786
| 26> H 2.1977112737 -0.4824489086 2.3137415496
| 27> H 1.6122820255 1.3875942073 -1.8074538001
| 28> H -1.8676598528 1.7793308195 0.4630815538
| 29> H -4.07855302 -0.7274668358 0.6645693703
| 30> *
| 31>
| 32>                          ****END OF INPUT****

CARTESIAN COORDINATES (ANGSTROEM)
---------------------------------
  C     -2.263193   -1.122187    0.058114
  C     -0.868274   -0.560531    0.344428
  H     -0.828401   -0.294831    1.412033
  C     -0.555739    0.689323   -0.490530
  H     -0.475667    0.397054   -1.544992
  C      0.803121    1.275680   -0.041922
  H      0.631358    2.000591    0.761174
  C      1.718862    0.166904    0.524626
  H      2.754522    0.436606    0.275564
  C      1.393457   -1.166525   -0.168933
  H      2.030242   -1.972916    0.229060
  O      0.078060   -1.593383    0.082947
  O      1.631793   -0.986164   -1.532949
  O      1.531539    0.095103    1.913358
  O      1.438587    1.989993   -1.067343
  O     -1.589802    1.634145   -0.452873
  O     -3.179981   -0.445571    0.884597
  H     -2.239842   -2.195199    0.286624
  H     -2.507017   -0.981300   -1.001111
  H      1.476727   -1.817123   -2.008398
  H      2.197711   -0.482449    2.313742
  H      1.612282    1.387594   -1.807454
  H     -1.867660    1.779331    0.463082
  H     -4.078553   -0.727467    0.664569

 Total Charge           Charge          ....    0
 Multiplicity           Mult            ....    1
 Number of Electrons    NEL             ....   96
 Basis Dimension        Dim             ....  192

ORBITAL ENERGIES
----------------

  NO   OCC          E(Eh)            E(eV)
   0   2.0000     -18.775829      -510.9163
   1   2.0000     -18.768976      -510.7298
   2   2.0000     -18.762543      -510.5547
   3   2.0000     -18.750999      -510.2406
   4   2.0000     -18.737209      -509.8654
   5   2.0000     -18.733888      -509.7750
   6   2.0000      -9.990696      -271.8607
   7   2.0000      -9.942731      -270.5555
   8   2.0000      -9.934838      -270.3407
   9   2.0000      -9.931155      -270.2405
  10   2.0000      -9.929874      -270.2056
  11   2.0000      -9.929207      -270.1875
  12   2.0000      -0.985420       -26.8146
  13   2.0000      -0.938927       -25.5495
  14   2.0000      -0.930111       -25.3096
  15   2.0000      -0.920949       -25.0603
  16   2.0000      -0.916991       -24.9526
  17   2.0000      -0.905996       -24.6534
  18   2.0000      -0.695316       -18.9205
  19   2.0000      -0.689805       -18.7706
  20   2.0000      -0.617125       -16.7928
  21   2.0000      -0.584944       -15.9171
  22   2.0000      -0.556625       -15.1465
  23   2.0000      -0.521256       -14.1841
  24   2.0000      -0.510424       -13.8893
  25   2.0000      -0.484214       -13.1761
  26   2.0000      -0.463804       -12.6208
  27   2.0000      -0.461876       -12.5683
  28   2.0000      -0.449805       -12.2398
  29   2.0000      -0.422797       -11.5049
  30   2.0000      -0.411066       -11.1857
  31   2.0000      -0.392656       -10.6847
  32   2.0000      -0.382005       -10.3949
  33   2.0000      -0.364728        -9.9247
  34   2.0000      -0.361533        -9.8378
  35   2.0000      -0.347018        -9.4428
  36   2.0000      -0.337073        -9.1722
  37   2.0000      -0.304589        -8.2883
  38   2.0000      -0.298564        -8.1243
  39   2.0000      -0.289903        -7.8887
  40   2.0000      -0.277915        -7.5625
  41   2.0000      -0.261061        -7.1038
  42   2.0000      -0.257984        -7.0201
  43   2.0000      -0.245346        -6.6762
  44   2.0000      -0.221557        -6.0289
  45   2.0000      -0.219919        -5.9843
  46   2.0000      -0.213467        -5.8087
  47   2.0000      -0.189801        -5.1647
  48   0.0000       0.012365         0.3365
  49   0.0000       0.018290         0.4977
  50   0.0000       0.023500         0.6395
  51   0.0000       0.057198         1.5564
  52   0.0000       0.067359         1.8329

MULLIKEN ATOMIC CHARGES
-----------------------
   0 C :    0.086972
   1 C :   -0.005298
   2 H :    0.075201
   3 C :    0.061976
   4 H :    0.041497
   5 C :    0.117826
   6 H :    0.060484
   7 C :    0.008175
   8 H :    0.073265
   9 C :    0.161851
  10 H :    0.050025
  11 O :   -0.312497
  12 O :   -0.398381
  13 O :   -0.406912
  14 O :   -0.425554
  15 O :   -0.404996
  16 O :   -0.439042
  17 H :    0.074839
  18 H :    0.065548
  19 H :    0.307698
  20 H :    0.304180
  21 H :    0.300678
  22 H :    0.299705
  23 H :    0.302761
Sum of atomic charges:    0.0000000

LOEWDIN ATOMIC CHARGES
----------------------
   0 C :   -0.123326
   1 C :   -0.070030
   2 H :    0.111311
   3 C :   -0.081410
   4 H :    0.109996
   5 C :   -0.063810
   6 H :    0.120447
   7 C :   -0.090663
   8 H :    0.109739
   9 C :   -0.010949
  10 H :    0.089886
  11 O :   -0.146893
  12 O :   -0.313695
  13 O :   -0.307135
  14 O :   -0.311994
  15 O :   -0.305487
  16 O :   -0.341220
  17 H :    0.099317
  18 H :    0.100001
  19 H :    0.289345
  20 H :    0.289437
  21 H :    0.277367
  22 H :    0.281282
  23 H :    0.288483

  Mayer bond orders larger than 0.100000
B(  0-C ,  1-C ) :   1.0299 B(  0-C , 16-O ) :   1.0820 B(  0-C , 17-H ) :   0.9150
B(  0-C , 18-H ) :   0.9050 B(  1-C ,  2-H ) :   0.8759 B(  1-C ,  3-C ) :   1.0715
B(  1-C , 11-O ) :   0.9762 B(  3-C ,  4-H ) :   0.8271 B(  3-C ,  5-C ) :   1.0100
B(  3-C , 15-O ) :   1.0690 B(  5-C ,  6-H ) :   0.8596 B(  5-C ,  7-C ) :   0.9746
B(  5-C , 14-O ) :   1.0504 B(  7-C ,  8-H ) :   0.8815 B(  7-C ,  9-C ) :   1.0215
B(  7-C , 13-O ) :   1.0356 B(  9-C , 10-H ) :   0.8945 B(  9-C , 11-O ) :   1.0830
B(  9-C , 12-O ) :   1.1107 B( 12-O , 19-H ) :   0.8371 B( 13-O , 20-H ) :   0.8451
B( 14-O , 21-H ) :   0.8393 B( 15-O , 22-H ) :   0.8380 B( 16-O , 23-H ) :   0.8489

Dispersion correction           -0.024785394
FINAL SINGLE POINT ENERGY      -685.687038220568

DIPOLE MOMENT
-------------

Method             : SCF
Type of density    : Electron Density
Multiplicity       :   1
Irrep              :   0
Energy             :  -685.8174480404281894 Eh
Relativity type    :
Basis              : AO
                                X                 Y                 Z
Electronic contribution:      1.394182687       0.767998227      -0.039228910
Nuclear contribution   :     -1.215601477      -2.307098140       0.038625238
                        -----------------------------------------
Total Dipole Moment    :      0.178581210      -1.539099913      -0.000603672
                        -----------------------------------------
Magnitude (a.u.)       :      1.549425750
Magnitude (Debye)      :      3.938327274

Rotational constants in cm-1:             0.042499             0.025264             0.021793
Rotational constants in MHz :          1274.091776           757.410140           653.331148

                             ****ORCA TERMINATED NORMALLY****
TOTAL RUN TIME: 0 days 0 hours 0 minutes 11 seconds 899 msec
