                         Program Version 6.0.0  -   RELEASE  -
|  1> ! r2scan-3c def2/J RI DEFGRID2 scfconv6 printgap
|  2> %output
|  3>     printlevel normal
|  4> end
|  5> * xyz 0 1
|  6> C -2.5625961746 -0.9702632627 0.0004793273
|  7> C -1.2349012257 -0.2829102961 -0.0007129851
|  8> C -1.1512981376 1.1091146512 -0.0004373221
|  9> C 0.0969575736 1.6999712205 0.0001273324
| 10> N 1.234843149 1.0195194438 0.0004157969
| 11> C 1.1715041768 -0.3073334248 0.0001047971
| 12> C -0.042841434 -0.9905880407 -0.0004247259
| 13> C 2.469884787 -1.0519913317 8.07644e-05
| 14> H -3.1208621329 -0.6999742783 0.895154286
| 15> H -3.1468080189 -0.6566180391 -0.8626729939
| 16> H -2.4419520017 -2.0495279357 -0.0269827532
| 17> H -2.0445637449 1.7140894587 -0.0008445491
| 18> H 0.2051489327 2.7771019385 0.000401056
| 19> H -0.0463236 -2.0705165174 -0.000677609
| 20> H 3.2951509975 -0.3472948667 0.008610141
| 21> H 2.5338806509 -1.693718554 0.876425646
| 22> H 2.5411020826 -1.6797255276 -0.8858628584
| 23> *
| 24>
| 25>                          ****END OF INPUT****

CARTESIAN COORDINATES (ANGSTROEM)
---------------------------------
  C     -2.562596   -0.970263    0.000479
  C     -1.234901   -0.282910   -0.000713
  C     -1.151298    1.109115   -0.000437
  C      0.096958    1.699971    0.000127
  N      1.234843    1.019519    0.000416
  C      1.171504   -0.307333    0.000105
  C     -0.042841   -0.990588   -0.000425
  C      2.469885   -1.051991    0.000081
  H     -3.120862   -0.699974    0.895154
  H     -3.146808   -0.656618   -0.862673
  H     -2.441952   -2.049528   -0.026983
  H     -2.044564    1.714089   -0.000845
  H      0.205149    2.777102    0.000401
  H     -0.046324   -2.070517   -0.000678
  H      3.295151   -0.347295    0.008610
  H      2.533881   -1.693719    0.876426
  H      2.541102   -1.679726   -0.885863

 Total Charge           Charge          ....    0
 Multiplicity           Mult            ....    1
 Number of Electrons    NEL             ....   58
 Basis Dimension        Dim             ....  202

ORBITAL ENERGIES
----------------

  NO   OCC          E(Eh)            E(eV)
   0   2.0000     -14.143396      -384.8614
   1   2.0000     -10.069997      -274.0185
   2   2.0000     -10.059681      -273.7378
   3   2.0000     -10.058118      -273.6953
   4   2.0000     -10.036876      -273.1173
   5   2.0000     -10.033916      -273.0367
   6   2.0000     -10.033856      -273.0351
   7   2.0000     -10.021701      -272.7043
   8   2.0000      -0.908986       -24.7348
   9   2.0000      -0.789019       -21.4703
  10   2.0000      -0.748427       -20.3657
  11   2.0000      -0.683192       -18.5906
  12   2.0000      -0.664533       -18.0829
  13   2.0000      -0.591479       -16.0950
  14   2.0000      -0.549832       -14.9617
  15   2.0000      -0.469536       -12.7767
  16   2.0000      -0.463532       -12.6133
  17   2.0000      -0.424997       -11.5648
  18   2.0000      -0.409863       -11.1529
  19   2.0000      -0.393436       -10.7059
  20   2.0000      -0.382871       -10.4185
  21   2.0000      -0.376045       -10.2327
  22   2.0000      -0.362215        -9.8564
  23   2.0000      -0.343589        -9.3495
  24   2.0000      -0.340455        -9.2643
  25   2.0000      -0.318685        -8.6719
  26   2.0000      -0.253513        -6.8984
  27   2.0000      -0.233504        -6.3540
  28   2.0000      -0.217726        -5.9246
  29   0.0000      -0.042518        -1.1570
  30   0.0000      -0.036026        -0.9803
  31   0.0000       0.074529         2.0280
  32   0.0000       0.101824         2.7708
  33   0.0000       0.106451         2.8967

MULLIKEN ATOMIC CHARGES
-----------------------
   0 C :   -0.541757
   1 C :    0.176973
   2 C :   -0.150309
   3 C :   -0.118933
   4 N :   -0.188684
   5 C :    0.277917
   6 C :   -0.257399
   7 C :   -0.602216
   8 H :    0.165618
   9 H :    0.163964
  10 H :    0.153196
  11 H :    0.148841
  12 H :    0.132220
  13 H :    0.150866
  14 H :    0.180665
  15 H :    0.154227
  16 H :    0.154812
Sum of atomic charges:    0.0000000

LOEWDIN ATOMIC CHARGES
----------------------
   0 C :   -0.387062
   1 C :   -0.060457
   2 C :   -0.158059
   3 C :    0.085505
   4 N :   -0.628165
   5 C :    0.130297
   6 C :   -0.147605
   7 C :   -0.363242
   8 H :    0.168668
   9 H :    0.168201
  10 H :    0.160279
  11 H :    0.170744
  12 H :    0.183332
  13 H :    0.170768
  14 H :    0.175589
  15 H :    0.165488
  16 H :    0.165721

  Mayer bond orders larger than 0.100000
B(  0-C ,  1-C ) :   0.7983 B(  0-C ,  8-H ) :   0.9743 B(  0-C ,  9-H ) :   0.9757
B(  0-C , 10-H ) :   0.9932 B(  1-C ,  2-C ) :   1.3197 B(  1-C ,  4-N ) :   0.1029
B(  1-C ,  6-C ) :   1.4414 B(  2-C ,  3-C ) :   1.3910 B(  2-C , 11-H ) :   0.9386
B(  3-C ,  4-N ) :   1.4503 B(  3-C , 12-H ) :   0.9878 B(  4-N ,  5-C ) :   1.3569
B(  5-C ,  6-C ) :   1.4121 B(  5-C ,  7-C ) :   0.8235 B(  6-C , 13-H ) :   0.9053
B(  7-C , 14-H ) :   1.0008 B(  7-C , 15-H ) :   0.9693 B(  7-C , 16-H ) :   0.9685

Dispersion correction           -0.005202336
FINAL SINGLE POINT ENERGY      -326.824456402434

DIPOLE MOMENT
-------------

Method             : SCF
Type of density    : Electron Density
Multiplicity       :   1
Irrep              :   0
Energy             :  -326.8270020852354492 Eh
Relativity type    :
Basis              : AO
                                X                 Y                 Z
Electronic contribution:      1.341505269       3.853733260      -0.001930191
Nuclear contribution   :     -2.080867148      -4.409604010       0.003333121
                        -----------------------------------------
Total Dipole Moment    :     -0.739361879      -0.555870750       0.001402929
                        -----------------------------------------
Magnitude (a.u.)       :      0.925013646
Magnitude (Debye)      :      2.351197836

Rotational constants in cm-1:             0.127974             0.059890             0.041424
Rotational constants in MHz :          3836.559974          1795.445044          1241.847000

                             ****ORCA TERMINATED NORMALLY****
TOTAL RUN TIME: 0 days 0 hours 0 minutes 20 seconds 913 msec
