                         Program Version 6.0.0  -   RELEASE  -
|  1> ! r2scan-3c def2/J RI DEFGRID2 scfconv6 printgap
|  2> %output
|  3>     printlevel normal
|  4> end
|  5> %cpcm
|  6>     smd true
|  7>     smdsolvent "water"
|  8> end
|  9> * xyz 0 1
| 10> C -2.5625961746 -0.9702632627 0.0004793273
| 11> C -1.2349012257 -0.2829102961 -0.0007129851
| 12> C -1.1512981376 1.1091146512 -0.0004373221
| 13> C 0.0969575736 1.6999712205 0.0001273324
| 14> N 1.234843149 1.0195194438 0.0004157969
| 15> C 1.1715041768 -0.3073334248 0.0001047971
| 16> C -0.042841434 -0.9905880407 -0.0004247259
| 17> C 2.469884787 -1.0519913317 8.07644e-05
| 18> H -3.1208621329 -0.6999742783 0.895154286
| 19> H -3.1468080189 -0.6566180391 -0.8626729939
| 20> H -2.4419520017 -2.0495279357 -0.0269827532
| 21> H -2.0445637449 1.7140894587 -0.0008445491
| 22> H 0.2051489327 2.7771019385 0.000401056
| 23> H -0.0463236 -2.0705165174 -0.000677609
| 24> H 3.2951509975 -0.3472948667 0.008610141
| 25> H 2.5338806509 -1.693718554 0.876425646
| 26> H 2.5411020826 -1.6797255276 -0.8858628584
| 27> *
| 28>
| 29>                          ****END OF INPUT****

CARTESIAN COORDINATES (ANGSTROEM)
---------------------------------
  C     -2.562596   -0.970263    0.000479
  C     -1.234901   -0.282910   -0.000713
  C     -1.151298    1.109115   -0.000437
  C      0.096958    1.699971    0.000127
  N      1.234843    1.019519    0.000416
  C      1.171504   -0.307333    0.000105
  C     -0.042841   -0.990588   -0.000425
  C      2.469885   -1.051991    0.000081
  H     -3.120862   -0.699974    0.895154
  H     -3.146808   -0.656618   -0.862673
  H     -2.441952   -2.049528   -0.026983
  H     -2.044564    1.714089   -0.000845
  H      0.205149    2.777102    0.000401
  H     -0.046324   -2.070517   -0.000678
  H      3.295151   -0.347295    0.008610
  H      2.533881   -1.693719    0.876426
  H      2.541102   -1.679726   -0.885863

 Total Charge           Charge          ....    0
 Multiplicity           Mult            ....    1
 Number of Electrons    NEL             ....   58
 Basis Dimension        Dim             ....  202

ORBITAL ENERGIES
----------------

  NO   OCC          E(Eh)            E(eV)
   0   2.0000     -14.148966      -385.0129
   1   2.0000     -10.071042      -274.0470
   2   2.0000     -10.059742      -273.7395
   3   2.0000     -10.055255      -273.6174
   4   2.0000     -10.030265      -272.9374
   5   2.0000     -10.029861      -272.9264
   6   2.0000     -10.021594      -272.7014
   7   2.0000     -10.016715      -272.5687
   8   2.0000      -0.913058       -24.8456
   9   2.0000      -0.785195       -21.3662
  10   2.0000      -0.747430       -20.3386
  11   2.0000      -0.675249       -18.3745
  12   2.0000      -0.659928       -17.9576
  13   2.0000      -0.590129       -16.0582
  14   2.0000      -0.545556       -14.8453
  15   2.0000      -0.466293       -12.6885
  16   2.0000      -0.459578       -12.5058
  17   2.0000      -0.419543       -11.4163
  18   2.0000      -0.405574       -11.0362
  19   2.0000      -0.383699       -10.4410
  20   2.0000      -0.377930       -10.2840
  21   2.0000      -0.366512        -9.9733
  22   2.0000      -0.353917        -9.6306
  23   2.0000      -0.342827        -9.3288
  24   2.0000      -0.336170        -9.1476
  25   2.0000      -0.313223        -8.5232
  26   2.0000      -0.253769        -6.9054
  27   2.0000      -0.233781        -6.3615
  28   2.0000      -0.226568        -6.1652
  29   0.0000      -0.043385        -1.1806
  30   0.0000      -0.036093        -0.9821
  31   0.0000       0.080276         2.1844
  32   0.0000       0.104148         2.8340
  33   0.0000       0.112481         3.0608

MULLIKEN ATOMIC CHARGES
-----------------------
   0 C :   -0.564221
   1 C :    0.161464
   2 C :   -0.178287
   3 C :   -0.141467
   4 N :   -0.246077
   5 C :    0.265202
   6 C :   -0.269013
   7 C :   -0.623553
   8 H :    0.182900
   9 H :    0.181316
  10 H :    0.173390
  11 H :    0.182761
  12 H :    0.158159
  13 H :    0.185170
  14 H :    0.178093
  15 H :    0.176840
  16 H :    0.177322
Sum of atomic charges:    0.0000000

LOEWDIN ATOMIC CHARGES
----------------------
   0 C :   -0.389377
   1 C :   -0.057848
   2 C :   -0.157715
   3 C :    0.072733
   4 N :   -0.677398
   5 C :    0.123069
   6 C :   -0.145738
   7 C :   -0.367357
   8 H :    0.176181
   9 H :    0.175657
  10 H :    0.166970
  11 H :    0.183505
  12 H :    0.191742
  13 H :    0.184357
  14 H :    0.172286
  15 H :    0.174381
  16 H :    0.174553

  Mayer bond orders larger than 0.100000
B(  0-C ,  1-C ) :   0.8148 B(  0-C ,  8-H ) :   0.9653 B(  0-C ,  9-H ) :   0.9667
B(  0-C , 10-H ) :   0.9874 B(  1-C ,  2-C ) :   1.2956 B(  1-C ,  6-C ) :   1.4229
B(  2-C ,  3-C ) :   1.4011 B(  2-C , 11-H ) :   0.9424 B(  3-C ,  4-N ) :   1.4360
B(  3-C , 12-H ) :   0.9770 B(  4-N ,  5-C ) :   1.3515 B(  5-C ,  6-C ) :   1.4061
B(  5-C ,  7-C ) :   0.8366 B(  6-C , 13-H ) :   0.9119 B(  7-C , 14-H ) :   1.0039
B(  7-C , 15-H ) :   0.9576 B(  7-C , 16-H ) :   0.9570

Dispersion correction           -0.005202336
FINAL SINGLE POINT ENERGY      -326.830733755267

DIPOLE MOMENT
-------------

Method             : SCF
Type of density    : Electron Density
Multiplicity       :   1
Irrep              :   0
Energy             :  -326.8332794380679616 Eh
Relativity type    :
Basis              : AO
                                X                 Y                 Z
Electronic contribution:      0.975560482       3.566902533      -0.001472354
Nuclear contribution   :     -2.080867148      -4.409604010       0.003333121
                        -----------------------------------------
Total Dipole Moment    :     -1.105306666      -0.842701477       0.001860766
                        -----------------------------------------
Magnitude (a.u.)       :      1.389910813
Magnitude (Debye)      :      3.532872525

Rotational constants in cm-1:             0.127974             0.059890             0.041424
Rotational constants in MHz :          3836.559974          1795.445044          1241.847000

                             ****ORCA TERMINATED NORMALLY****
TOTAL RUN TIME: 0 days 0 hours 0 minutes 29 seconds 524 msec
