                         Program Version 6.0.0  -   RELEASE  -
|  1> ! pbe def2-sv(p) def2/J RI DEFGRID1 loosescf d4 GCP(DFT/SV(P)) printgap
|  2> %output
|  3>     printlevel normal
|  4> end
|  5> * xyz 0 1
|  6> C -3.168444702 -0.0192775532 1.0194754405
|  7> O -1.7594336431 0.0087316238 0.7811101756
|  8> C -1.3479008859 -0.1285976447 -0.4726166078
|  9> O -2.1113168034 -0.2753320795 -1.4062125923
| 10> C 0.1553127299 -0.0765438045 -0.5934425287
| 11> C 0.7968214076 -1.1999984163 0.2304267821
| 12> C 2.3164172712 -1.1382756953 0.1102017833
| 13> C 2.8355769982 0.2177678741 0.578100655
| 14> C 2.195068574 1.3395547516 -0.2334987911
| 15> C 0.675060921 1.2854818202 -0.1152365655
| 16> H -3.2866296806 0.1072686165 2.0909346501
| 17> H -3.5838625442 -0.9715522722 0.6877861456
| 18> H -3.6551439921 0.7887389374 0.4720455348
| 19> H 0.3976488158 -0.2113397298 -1.6521264808
| 20> H 0.5025345682 -1.0832712125 1.2747768692
| 21> H 0.4310910052 -2.1667954109 -0.1219000913
| 22> H 2.7604697871 -1.9351156663 0.7085149149
| 23> H 2.6039947751 -1.2986642449 -0.9309240353
| 24> H 2.5948502494 0.3525250944 1.6343811958
| 25> H 3.9207313814 0.2561672992 0.4718813273
| 26> H 2.551950621 2.3077386177 0.1206147892
| 27> H 2.4804139312 1.2386052665 -1.2826438213
| 28> H 0.3789015556 1.4298540459 0.9251986333
| 29> H 0.2230216378 2.0798084357 -0.7130707547
| 30> *
| 31>
| 32>                          ****END OF INPUT****

CARTESIAN COORDINATES (ANGSTROEM)
---------------------------------
  C     -3.168445   -0.019278    1.019475
  O     -1.759434    0.008732    0.781110
  C     -1.347901   -0.128598   -0.472617
  O     -2.111317   -0.275332   -1.406213
  C      0.155313   -0.076544   -0.593443
  C      0.796821   -1.199998    0.230427
  C      2.316417   -1.138276    0.110202
  C      2.835577    0.217768    0.578101
  C      2.195069    1.339555   -0.233499
  C      0.675061    1.285482   -0.115237
  H     -3.286630    0.107269    2.090935
  H     -3.583863   -0.971552    0.687786
  H     -3.655144    0.788739    0.472046
  H      0.397649   -0.211340   -1.652126
  H      0.502535   -1.083271    1.274777
  H      0.431091   -2.166795   -0.121900
  H      2.760470   -1.935116    0.708515
  H      2.603995   -1.298664   -0.930924
  H      2.594850    0.352525    1.634381
  H      3.920731    0.256167    0.471881
  H      2.551951    2.307739    0.120615
  H      2.480414    1.238605   -1.282644
  H      0.378902    1.429854    0.925199
  H      0.223022    2.079808   -0.713071

 Total Charge           Charge          ....    0
 Multiplicity           Mult            ....    1
 Number of Electrons    NEL             ....   78
 Basis Dimension        Dim             ....  168

ORBITAL ENERGIES
----------------

  NO   OCC          E(Eh)            E(eV)
   0   2.0000     -18.797266      -511.4996
   1   2.0000     -18.729353      -509.6516
   2   2.0000      -9.999411      -272.0978
   3   2.0000      -9.940875      -270.5050
   4   2.0000      -9.901327      -269.4288
   5   2.0000      -9.888895      -269.0905
   6   2.0000      -9.888654      -269.0840
   7   2.0000      -9.885654      -269.0023
   8   2.0000      -9.885574      -269.0001
   9   2.0000      -9.884514      -268.9713
  10   2.0000      -1.004223       -27.3263
  11   2.0000      -0.904682       -24.6177
  12   2.0000      -0.764415       -20.8008
  13   2.0000      -0.695061       -18.9136
  14   2.0000      -0.670781       -18.2529
  15   2.0000      -0.649327       -17.6691
  16   2.0000      -0.560779       -15.2596
  17   2.0000      -0.547409       -14.8957
  18   2.0000      -0.506519       -13.7831
  19   2.0000      -0.502006       -13.6603
  20   2.0000      -0.456054       -12.4099
  21   2.0000      -0.431449       -11.7403
  22   2.0000      -0.426655       -11.6099
  23   2.0000      -0.404310       -11.0018
  24   2.0000      -0.398630       -10.8473
  25   2.0000      -0.386721       -10.5232
  26   2.0000      -0.378415       -10.2972
  27   2.0000      -0.361762        -9.8441
  28   2.0000      -0.350735        -9.5440
  29   2.0000      -0.339553        -9.2397
  30   2.0000      -0.319178        -8.6853
  31   2.0000      -0.310201        -8.4410
  32   2.0000      -0.307258        -8.3609
  33   2.0000      -0.303868        -8.2687
  34   2.0000      -0.285963        -7.7814
  35   2.0000      -0.273003        -7.4288
  36   2.0000      -0.262717        -7.1489
  37   2.0000      -0.255575        -6.9545
  38   2.0000      -0.208849        -5.6831
  39   0.0000      -0.015819        -0.4304
  40   0.0000       0.033412         0.9092
  41   0.0000       0.047970         1.3053
  42   0.0000       0.056771         1.5448
  43   0.0000       0.069596         1.8938

MULLIKEN ATOMIC CHARGES
-----------------------
   0 C :   -0.103374
   1 O :   -0.249306
   2 C :    0.152886
   3 O :   -0.200738
   4 C :   -0.156997
   5 C :   -0.148443
   6 C :   -0.126156
   7 C :   -0.164946
   8 C :   -0.125522
   9 C :   -0.149452
  10 H :    0.119596
  11 H :    0.118576
  12 H :    0.118497
  13 H :    0.073515
  14 H :    0.087261
  15 H :    0.090719
  16 H :    0.086602
  17 H :    0.075080
  18 H :    0.075743
  19 H :    0.086622
  20 H :    0.086649
  21 H :    0.075267
  22 H :    0.086806
  23 H :    0.091114
Sum of atomic charges:   -0.0000000

LOEWDIN ATOMIC CHARGES
----------------------
   0 C :   -0.202360
   1 O :   -0.069284
   2 C :    0.041936
   3 O :   -0.168794
   4 C :   -0.159535
   5 C :   -0.214065
   6 C :   -0.225133
   7 C :   -0.227366
   8 C :   -0.225113
   9 C :   -0.213633
  10 H :    0.119588
  11 H :    0.119753
  12 H :    0.119699
  13 H :    0.129423
  14 H :    0.118632
  15 H :    0.119614
  16 H :    0.117843
  17 H :    0.115397
  18 H :    0.114805
  19 H :    0.116924
  20 H :    0.117905
  21 H :    0.115446
  22 H :    0.118551
  23 H :    0.119768

  Mayer bond orders larger than 0.100000
B(  0-C ,  1-O ) :   0.9413 B(  0-C , 10-H ) :   0.9583 B(  0-C , 11-H ) :   0.9519
B(  0-C , 12-H ) :   0.9520 B(  1-O ,  2-C ) :   1.1949 B(  2-C ,  3-O ) :   2.0830
B(  2-C ,  4-C ) :   0.9629 B(  4-C ,  5-C ) :   1.0747 B(  4-C ,  9-C ) :   1.0761
B(  4-C , 13-H ) :   0.8789 B(  5-C ,  6-C ) :   1.1367 B(  5-C , 14-H ) :   0.9050
B(  5-C , 15-H ) :   0.9193 B(  6-C ,  7-C ) :   1.1367 B(  6-C , 16-H ) :   0.9190
B(  6-C , 17-H ) :   0.9110 B(  7-C ,  8-C ) :   1.1363 B(  7-C , 18-H ) :   0.9151
B(  7-C , 19-H ) :   0.9197 B(  8-C ,  9-C ) :   1.1369 B(  8-C , 20-H ) :   0.9188
B(  8-C , 21-H ) :   0.9112 B(  9-C , 22-H ) :   0.9051 B(  9-C , 23-H ) :   0.9190

Dispersion correction           -0.022720487
FINAL SINGLE POINT ENERGY      -462.706689985697

DIPOLE MOMENT
-------------

Method             : SCF
Type of density    : Electron Density
Multiplicity       :   1
Irrep              :   0
Energy             :  -462.7945511343480121 Eh
Relativity type    :
Basis              : AO
                                X                 Y                 Z
Electronic contribution:     -7.514393482      -0.727647140      -2.695448327
Nuclear contribution   :      7.748135580       0.834738503       3.448317891
                        -----------------------------------------
Total Dipole Moment    :      0.233742099       0.107091363       0.752869564
                        -----------------------------------------
Magnitude (a.u.)       :      0.795560500
Magnitude (Debye)      :      2.022154089

Rotational constants in cm-1:             0.091141             0.025274             0.024549
Rotational constants in MHz :          2732.342831           757.694989           735.959724

                             ****ORCA TERMINATED NORMALLY****
TOTAL RUN TIME: 0 days 0 hours 0 minutes 11 seconds 961 msec
