                         Program Version 6.0.0  -   RELEASE  -
|  1> ! r2scan-3c def2/J RI DEFGRID2 scfconv6 printgap
|  2> %output
|  3>     printlevel normal
|  4> end
|  5> * xyz 0 1
|  6> C 2.0456579666 0.9566328782 -0.6138867417
|  7> C 1.1619437284 -0.1915569982 -0.1448789811
|  8> C 1.8125681577 -1.001244285 0.9697276511
|  9> O -0.0649441933 0.3788830776 0.3674150589
| 10> C -1.230272823 -0.0126420598 -0.1211396546
| 11> O -1.3556771315 -0.851157296 -0.9925853791
| 12> C -2.370424262 0.7155832052 0.5283232481
| 13> H 1.5506763695 1.5164813046 -1.4031226857
| 14> H 2.2489636904 1.6258474605 0.2174486126
| 15> H 2.9817749559 0.5617770887 -0.9948146766
| 16> H 0.8960505631 -0.8443143195 -0.9859046165
| 17> H 2.0228864056 -0.3562591368 1.818444337
| 18> H 2.7395591166 -1.4353513238 0.6095724773
| 19> H 1.1498231754 -1.8013072294 1.2904275517
| 20> H -2.8142797507 1.3865862413 -0.2034540643
| 21> H -2.0108610168 1.2820866384 1.3802021114
| 22> H -3.1293108298 -0.0011318559 0.828800079
| 23> *
| 24>
| 25>                          ****END OF INPUT****

CARTESIAN COORDINATES (ANGSTROEM)
---------------------------------
  C      2.045658    0.956633   -0.613887
  C      1.161944   -0.191557   -0.144879
  C      1.812568   -1.001244    0.969728
  O     -0.064944    0.378883    0.367415
  C     -1.230273   -0.012642   -0.121140
  O     -1.355677   -0.851157   -0.992585
  C     -2.370424    0.715583    0.528323
  H      1.550676    1.516481   -1.403123
  H      2.248964    1.625847    0.217449
  H      2.981775    0.561777   -0.994815
  H      0.896051   -0.844314   -0.985905
  H      2.022886   -0.356259    1.818444
  H      2.739559   -1.435351    0.609572
  H      1.149823   -1.801307    1.290428
  H     -2.814280    1.386586   -0.203454
  H     -2.010861    1.282087    1.380202
  H     -3.129311   -0.001132    0.828800

 Total Charge           Charge          ....    0
 Multiplicity           Mult            ....    1
 Number of Electrons    NEL             ....   56
 Basis Dimension        Dim             ....  193

ORBITAL ENERGIES
----------------

  NO   OCC          E(Eh)            E(eV)
   0   2.0000     -18.994775      -516.8741
   1   2.0000     -18.924258      -514.9553
   2   2.0000     -10.154164      -276.3088
   3   2.0000     -10.095661      -274.7169
   4   2.0000     -10.037373      -273.1308
   5   2.0000     -10.028892      -272.9000
   6   2.0000     -10.028579      -272.8915
   7   2.0000      -1.069910       -29.1137
   8   2.0000      -0.972774       -26.4705
   9   2.0000      -0.773065       -21.0362
  10   2.0000      -0.711022       -19.3479
  11   2.0000      -0.667250       -18.1568
  12   2.0000      -0.600064       -16.3286
  13   2.0000      -0.523068       -14.2334
  14   2.0000      -0.459795       -12.5117
  15   2.0000      -0.445565       -12.1244
  16   2.0000      -0.438965       -11.9448
  17   2.0000      -0.410524       -11.1709
  18   2.0000      -0.397217       -10.8088
  19   2.0000      -0.389254       -10.5921
  20   2.0000      -0.368972       -10.0402
  21   2.0000      -0.368525       -10.0281
  22   2.0000      -0.348931        -9.4949
  23   2.0000      -0.336988        -9.1699
  24   2.0000      -0.325345        -8.8531
  25   2.0000      -0.299626        -8.1532
  26   2.0000      -0.267450        -7.2777
  27   2.0000      -0.234327        -6.3764
  28   0.0000      -0.011178        -0.3042
  29   0.0000       0.075107         2.0438
  30   0.0000       0.096080         2.6145
  31   0.0000       0.117821         3.2061
  32   0.0000       0.127923         3.4810

MULLIKEN ATOMIC CHARGES
-----------------------
   0 C :   -0.461792
   1 C :   -0.019305
   2 C :   -0.466447
   3 O :   -0.148906
   4 C :    0.427637
   5 O :   -0.433615
   6 C :   -0.520904
   7 H :    0.153481
   8 H :    0.154911
   9 H :    0.147431
  10 H :    0.192764
  11 H :    0.154598
  12 H :    0.148260
  13 H :    0.155713
  14 H :    0.173517
  15 H :    0.169807
  16 H :    0.172851
Sum of atomic charges:    0.0000000

LOEWDIN ATOMIC CHARGES
----------------------
   0 C :   -0.376366
   1 C :    0.070837
   2 C :   -0.376693
   3 O :   -0.595386
   4 C :    0.359914
   5 O :   -0.445647
   6 C :   -0.336038
   7 H :    0.162065
   8 H :    0.161100
   9 H :    0.160364
  10 H :    0.199538
  11 H :    0.160628
  12 H :    0.160344
  13 H :    0.163057
  14 H :    0.180545
  15 H :    0.173550
  16 H :    0.178187

  Mayer bond orders larger than 0.100000
B(  0-C ,  1-C ) :   0.9498 B(  0-C ,  7-H ) :   0.9678 B(  0-C ,  8-H ) :   0.9779
B(  0-C ,  9-H ) :   0.9711 B(  1-C ,  2-C ) :   0.9522 B(  1-C ,  3-O ) :   0.6987
B(  1-C , 10-H ) :   0.9440 B(  2-C , 11-H ) :   0.9784 B(  2-C , 12-H ) :   0.9708
B(  2-C , 13-H ) :   0.9665 B(  3-O ,  4-C ) :   1.0776 B(  4-C ,  5-O ) :   1.8287
B(  4-C ,  6-C ) :   0.9439 B(  6-C , 14-H ) :   0.9457 B(  6-C , 15-H ) :   0.9839
B(  6-C , 16-H ) :   0.9638

Dispersion correction           -0.004058514
FINAL SINGLE POINT ENERGY      -346.941708460215

DIPOLE MOMENT
-------------

Method             : SCF
Type of density    : Electron Density
Multiplicity       :   1
Irrep              :   0
Energy             :  -346.9480601027423177 Eh
Relativity type    :
Basis              : AO
                                X                 Y                 Z
Electronic contribution:     -4.781775347      -1.312030658      -1.864257333
Nuclear contribution   :      5.265775026       1.807802572       2.390186741
                        -----------------------------------------
Total Dipole Moment    :      0.483999679       0.495771914       0.525929408
                        -----------------------------------------
Magnitude (a.u.)       :      0.869854713
Magnitude (Debye)      :      2.210994970

Rotational constants in cm-1:             0.156892             0.052185             0.050696
Rotational constants in MHz :          4703.493571          1564.479162          1519.820643

                             ****ORCA TERMINATED NORMALLY****
TOTAL RUN TIME: 0 days 0 hours 0 minutes 20 seconds 974 msec
