                         Program Version 6.0.0  -   RELEASE  -
|  1> ! r2scan-3c def2/J RI DEFGRID2 scfconv6 printgap
|  2> %output
|  3>     printlevel normal
|  4> end
|  5> %cpcm
|  6>     smd true
|  7>     smdsolvent "water"
|  8> end
|  9> * xyz 0 1
| 10> C 2.0456579666 0.9566328782 -0.6138867417
| 11> C 1.1619437284 -0.1915569982 -0.1448789811
| 12> C 1.8125681577 -1.001244285 0.9697276511
| 13> O -0.0649441933 0.3788830776 0.3674150589
| 14> C -1.230272823 -0.0126420598 -0.1211396546
| 15> O -1.3556771315 -0.851157296 -0.9925853791
| 16> C -2.370424262 0.7155832052 0.5283232481
| 17> H 1.5506763695 1.5164813046 -1.4031226857
| 18> H 2.2489636904 1.6258474605 0.2174486126
| 19> H 2.9817749559 0.5617770887 -0.9948146766
| 20> H 0.8960505631 -0.8443143195 -0.9859046165
| 21> H 2.0228864056 -0.3562591368 1.818444337
| 22> H 2.7395591166 -1.4353513238 0.6095724773
| 23> H 1.1498231754 -1.8013072294 1.2904275517
| 24> H -2.8142797507 1.3865862413 -0.2034540643
| 25> H -2.0108610168 1.2820866384 1.3802021114
| 26> H -3.1293108298 -0.0011318559 0.828800079
| 27> *
| 28>
| 29>                          ****END OF INPUT****

CARTESIAN COORDINATES (ANGSTROEM)
---------------------------------
  C      2.045658    0.956633   -0.613887
  C      1.161944   -0.191557   -0.144879
  C      1.812568   -1.001244    0.969728
  O     -0.064944    0.378883    0.367415
  C     -1.230273   -0.012642   -0.121140
  O     -1.355677   -0.851157   -0.992585
  C     -2.370424    0.715583    0.528323
  H      1.550676    1.516481   -1.403123
  H      2.248964    1.625847    0.217449
  H      2.981775    0.561777   -0.994815
  H      0.896051   -0.844314   -0.985905
  H      2.022886   -0.356259    1.818444
  H      2.739559   -1.435351    0.609572
  H      1.149823   -1.801307    1.290428
  H     -2.814280    1.386586   -0.203454
  H     -2.010861    1.282087    1.380202
  H     -3.129311   -0.001132    0.828800

 Total Charge           Charge          ....    0
 Multiplicity           Mult            ....    1
 Number of Electrons    NEL             ....   56
 Basis Dimension        Dim             ....  193

ORBITAL ENERGIES
----------------

  NO   OCC          E(Eh)            E(eV)
   0   2.0000     -19.000731      -517.0362
   1   2.0000     -18.940819      -515.4059
   2   2.0000     -10.165181      -276.6086
   3   2.0000     -10.089796      -274.5573
   4   2.0000     -10.029517      -272.9170
   5   2.0000     -10.016476      -272.5622
   6   2.0000     -10.016378      -272.5595
   7   2.0000      -1.077502       -29.3203
   8   2.0000      -0.987280       -26.8653
   9   2.0000      -0.767241       -20.8777
  10   2.0000      -0.705401       -19.1949
  11   2.0000      -0.655991       -17.8504
  12   2.0000      -0.596029       -16.2188
  13   2.0000      -0.520809       -14.1719
  14   2.0000      -0.465176       -12.6581
  15   2.0000      -0.447186       -12.1686
  16   2.0000      -0.444460       -12.0944
  17   2.0000      -0.406336       -11.0570
  18   2.0000      -0.389111       -10.5883
  19   2.0000      -0.379383       -10.3235
  20   2.0000      -0.367157        -9.9909
  21   2.0000      -0.356206        -9.6929
  22   2.0000      -0.343719        -9.3531
  23   2.0000      -0.333472        -9.0742
  24   2.0000      -0.321298        -8.7430
  25   2.0000      -0.297290        -8.0897
  26   2.0000      -0.274455        -7.4683
  27   2.0000      -0.251639        -6.8474
  28   0.0000      -0.019350        -0.5265
  29   0.0000       0.079377         2.1599
  30   0.0000       0.104241         2.8365
  31   0.0000       0.128675         3.5014
  32   0.0000       0.137665         3.7461

MULLIKEN ATOMIC CHARGES
-----------------------
   0 C :   -0.506952
   1 C :    0.014737
   2 C :   -0.508364
   3 O :   -0.168876
   4 C :    0.472984
   5 O :   -0.523108
   6 C :   -0.557516
   7 H :    0.164566
   8 H :    0.169559
   9 H :    0.170642
  10 H :    0.184996
  11 H :    0.169723
  12 H :    0.171684
  13 H :    0.164465
  14 H :    0.201675
  15 H :    0.186543
  16 H :    0.193240
Sum of atomic charges:   -0.0000000

LOEWDIN ATOMIC CHARGES
----------------------
   0 C :   -0.380495
   1 C :    0.075907
   2 C :   -0.380924
   3 O :   -0.596595
   4 C :    0.370666
   5 O :   -0.509197
   6 C :   -0.334182
   7 H :    0.164534
   8 H :    0.165253
   9 H :    0.169012
  10 H :    0.198128
  11 H :    0.165111
  12 H :    0.168939
  13 H :    0.164652
  14 H :    0.191361
  15 H :    0.181686
  16 H :    0.186144

  Mayer bond orders larger than 0.100000
B(  0-C ,  1-C ) :   0.9436 B(  0-C ,  7-H ) :   0.9645 B(  0-C ,  8-H ) :   0.9751
B(  0-C ,  9-H ) :   0.9652 B(  1-C ,  2-C ) :   0.9473 B(  1-C ,  3-O ) :   0.6884
B(  1-C , 10-H ) :   0.9413 B(  2-C , 11-H ) :   0.9752 B(  2-C , 12-H ) :   0.9651
B(  2-C , 13-H ) :   0.9630 B(  3-O ,  4-C ) :   1.1065 B(  4-C ,  5-O ) :   1.7539
B(  4-C ,  6-C ) :   0.9447 B(  6-C , 14-H ) :   0.9342 B(  6-C , 15-H ) :   0.9736
B(  6-C , 16-H ) :   0.9542

Dispersion correction           -0.004058514
FINAL SINGLE POINT ENERGY      -346.947004189823

DIPOLE MOMENT
-------------

Method             : SCF
Type of density    : Electron Density
Multiplicity       :   1
Irrep              :   0
Energy             :  -346.9533558323505531 Eh
Relativity type    :
Basis              : AO
                                X                 Y                 Z
Electronic contribution:     -4.614320988      -1.108418063      -1.659027354
Nuclear contribution   :      5.265775026       1.807802572       2.390186741
                        -----------------------------------------
Total Dipole Moment    :      0.651454038       0.699384508       0.731159387
                        -----------------------------------------
Magnitude (a.u.)       :      1.203380698
Magnitude (Debye)      :      3.058750650

Rotational constants in cm-1:             0.156892             0.052185             0.050696
Rotational constants in MHz :          4703.493571          1564.479162          1519.820643

                             ****ORCA TERMINATED NORMALLY****
TOTAL RUN TIME: 0 days 0 hours 0 minutes 25 seconds 191 msec
