                         Program Version 6.0.0  -   RELEASE  -
|  1> ! r2scan-3c def2/J RI DEFGRID2 scfconv6 printgap
|  2> %output
|  3>     printlevel normal
|  4> end
|  5> * xyz 0 1
|  6> C -0.7055416228 -2.9687878768 0.226893034
|  7> C 0.6758030872 -2.9827313647 0.3099424669
|  8> C 1.3876497903 -1.7968186967 0.2453770507
|  9> C 0.7275345618 -0.5814251568 0.0966346801
| 10> C -0.6674030979 -0.5677001644 0.0122597038
| 11> C -1.3729149801 -1.7658081531 0.07836558
| 12> C -1.5272221349 0.655598722 -0.1522179303
| 13> F -2.2685158679 0.5803765048 -1.2793258932
| 14> F -2.420689814 0.7606666052 0.8556864274
| 15> F -0.905191402 1.8369706626 -0.2072788157
| 16> C 1.5531816434 0.6754494653 0.0336165757
| 17> F 2.8700617892 0.4314606644 0.1291084409
| 18> F 1.4017276581 1.3527340384 -1.122055632
| 19> F 1.2800956455 1.5397329053 1.031595876
| 20> H -1.2672102516 -3.8868666638 0.2764474173
| 21> H 1.207095967 -3.9129627849 0.4256123259
| 22> H 2.4636561434 -1.808013818 0.3105401375
| 23> H -2.4493490932 -1.7396614155 0.0116695804
| 24> *
| 25>
| 26>                          ****END OF INPUT****

CARTESIAN COORDINATES (ANGSTROEM)
---------------------------------
  C     -0.705542   -2.968788    0.226893
  C      0.675803   -2.982731    0.309942
  C      1.387650   -1.796819    0.245377
  C      0.727535   -0.581425    0.096635
  C     -0.667403   -0.567700    0.012260
  C     -1.372915   -1.765808    0.078366
  C     -1.527222    0.655599   -0.152218
  F     -2.268516    0.580377   -1.279326
  F     -2.420690    0.760667    0.855686
  F     -0.905191    1.836971   -0.207279
  C      1.553182    0.675449    0.033617
  F      2.870062    0.431461    0.129108
  F      1.401728    1.352734   -1.122056
  F      1.280096    1.539733    1.031596
  H     -1.267210   -3.886867    0.276447
  H      1.207096   -3.912963    0.425612
  H      2.463656   -1.808014    0.310540
  H     -2.449349   -1.739661    0.011670

 Total Charge           Charge          ....    0
 Multiplicity           Mult            ....    1
 Number of Electrons    NEL             ....  106
 Basis Dimension        Dim             ....  316

ORBITAL ENERGIES
----------------

  NO   OCC          E(Eh)            E(eV)
   0   2.0000     -24.524118      -667.3352
   1   2.0000     -24.521648      -667.2680
   2   2.0000     -24.518748      -667.1891
   3   2.0000     -24.518640      -667.1861
   4   2.0000     -24.517177      -667.1463
   5   2.0000     -24.517091      -667.1439
   6   2.0000     -10.294691      -280.1328
   7   2.0000     -10.294567      -280.1294
   8   2.0000     -10.098543      -274.7953
   9   2.0000     -10.097751      -274.7738
  10   2.0000     -10.078313      -274.2448
  11   2.0000     -10.077538      -274.2237
  12   2.0000     -10.074894      -274.1518
  13   2.0000     -10.074366      -274.1374
  14   2.0000      -1.282547       -34.8999
  15   2.0000      -1.278269       -34.7835
  16   2.0000      -1.193018       -32.4637
  17   2.0000      -1.187234       -32.3063
  18   2.0000      -1.186299       -32.2808
  19   2.0000      -1.185742       -32.2657
  20   2.0000      -0.878231       -23.8979
  21   2.0000      -0.785458       -21.3734
  22   2.0000      -0.777008       -21.1435
  23   2.0000      -0.697301       -18.9745
  24   2.0000      -0.671907       -18.2835
  25   2.0000      -0.620866       -16.8946
  26   2.0000      -0.616483       -16.7754
  27   2.0000      -0.576482       -15.6869
  28   2.0000      -0.558873       -15.2077
  29   2.0000      -0.558180       -15.1888
  30   2.0000      -0.557480       -15.1698
  31   2.0000      -0.555378       -15.1126
  32   2.0000      -0.524518       -14.2729
  33   2.0000      -0.480489       -13.0748
  34   2.0000      -0.463700       -12.6179
  35   2.0000      -0.446476       -12.1492
  36   2.0000      -0.436868       -11.8878
  37   2.0000      -0.434856       -11.8330
  38   2.0000      -0.430378       -11.7112
  39   2.0000      -0.425277       -11.5724
  40   2.0000      -0.405482       -11.0337
  41   2.0000      -0.398624       -10.8471
  42   2.0000      -0.393883       -10.7181
  43   2.0000      -0.388268       -10.5653
  44   2.0000      -0.384709       -10.4685
  45   2.0000      -0.375260       -10.2113
  46   2.0000      -0.374374       -10.1872
  47   2.0000      -0.372706       -10.1418
  48   2.0000      -0.362921        -9.8756
  49   2.0000      -0.353931        -9.6309
  50   2.0000      -0.343240        -9.3400
  51   2.0000      -0.280930        -7.6445
  52   2.0000      -0.276955        -7.5363
  53   0.0000      -0.088239        -2.4011
  54   0.0000      -0.074749        -2.0340
  55   0.0000       0.057321         1.5598
  56   0.0000       0.063195         1.7196
  57   0.0000       0.077099         2.0980

MULLIKEN ATOMIC CHARGES
-----------------------
   0 C :   -0.128469
   1 C :   -0.098681
   2 C :   -0.231366
   3 C :    0.080430
   4 C :    0.043328
   5 C :   -0.139197
   6 C :    0.524167
   7 F :   -0.211005
   8 F :   -0.211451
   9 F :   -0.199331
  10 C :    0.559504
  11 F :   -0.219889
  12 F :   -0.205473
  13 F :   -0.205393
  14 H :    0.153477
  15 H :    0.153300
  16 H :    0.174302
  17 H :    0.161746
Sum of atomic charges:    0.0000000

LOEWDIN ATOMIC CHARGES
----------------------
   0 C :   -0.134613
   1 C :   -0.135454
   2 C :   -0.112730
   3 C :   -0.035056
   4 C :   -0.035780
   5 C :   -0.107084
   6 C :    0.535606
   7 F :   -0.211916
   8 F :   -0.212112
   9 F :   -0.187296
  10 C :    0.531253
  11 F :   -0.213312
  12 F :   -0.203376
  13 F :   -0.203521
  14 H :    0.174761
  15 H :    0.174446
  16 H :    0.189047
  17 H :    0.187138

  Mayer bond orders larger than 0.100000
B(  0-C ,  1-C ) :   1.3858 B(  0-C ,  5-C ) :   1.3858 B(  0-C , 14-H ) :   0.9514
B(  1-C ,  2-C ) :   1.3578 B(  1-C , 15-H ) :   0.9513 B(  2-C ,  3-C ) :   1.3320
B(  2-C , 16-H ) :   0.9599 B(  3-C ,  4-C ) :   1.4051 B(  3-C , 10-C ) :   1.0003
B(  4-C ,  5-C ) :   1.4132 B(  4-C ,  6-C ) :   0.9761 B(  5-C , 17-H ) :   0.9104
B(  6-C ,  7-F ) :   1.0140 B(  6-C ,  8-F ) :   1.0151 B(  6-C ,  9-F ) :   1.0789
B( 10-C , 11-F ) :   1.0729 B( 10-C , 12-F ) :   1.0119 B( 10-C , 13-F ) :   1.0115

Dispersion correction           -0.006798080
FINAL SINGLE POINT ENERGY      -906.268860116307

DIPOLE MOMENT
-------------

Method             : SCF
Type of density    : Electron Density
Multiplicity       :   1
Irrep              :   0
Energy             :  -906.2787026147492497 Eh
Relativity type    :
Basis              : AO
                                X                 Y                 Z
Electronic contribution:      0.045218554      14.922897959      -1.348266561
Nuclear contribution   :     -0.003586366     -16.670261104       1.509706102
                        -----------------------------------------
Total Dipole Moment    :      0.041632188      -1.747363145       0.161439542
                        -----------------------------------------
Magnitude (a.u.)       :      1.755298813
Magnitude (Debye)      :      4.461615013

Rotational constants in cm-1:             0.028048             0.024751             0.015250
Rotational constants in MHz :           840.855688           742.011210           457.189109

                             ****ORCA TERMINATED NORMALLY****
TOTAL RUN TIME: 0 days 0 hours 0 minutes 40 seconds 466 msec
