                         Program Version 6.0.0  -   RELEASE  -
|  1> ! r2scan-3c def2/J RI DEFGRID2 scfconv6 printgap
|  2> %output
|  3>     printlevel normal
|  4> end
|  5> %cpcm
|  6>     smd true
|  7>     smdsolvent "water"
|  8> end
|  9> * xyz 0 1
| 10> C -0.7055416228 -2.9687878768 0.226893034
| 11> C 0.6758030872 -2.9827313647 0.3099424669
| 12> C 1.3876497903 -1.7968186967 0.2453770507
| 13> C 0.7275345618 -0.5814251568 0.0966346801
| 14> C -0.6674030979 -0.5677001644 0.0122597038
| 15> C -1.3729149801 -1.7658081531 0.07836558
| 16> C -1.5272221349 0.655598722 -0.1522179303
| 17> F -2.2685158679 0.5803765048 -1.2793258932
| 18> F -2.420689814 0.7606666052 0.8556864274
| 19> F -0.905191402 1.8369706626 -0.2072788157
| 20> C 1.5531816434 0.6754494653 0.0336165757
| 21> F 2.8700617892 0.4314606644 0.1291084409
| 22> F 1.4017276581 1.3527340384 -1.122055632
| 23> F 1.2800956455 1.5397329053 1.031595876
| 24> H -1.2672102516 -3.8868666638 0.2764474173
| 25> H 1.207095967 -3.9129627849 0.4256123259
| 26> H 2.4636561434 -1.808013818 0.3105401375
| 27> H -2.4493490932 -1.7396614155 0.0116695804
| 28> *
| 29>
| 30>                          ****END OF INPUT****

CARTESIAN COORDINATES (ANGSTROEM)
---------------------------------
  C     -0.705542   -2.968788    0.226893
  C      0.675803   -2.982731    0.309942
  C      1.387650   -1.796819    0.245377
  C      0.727535   -0.581425    0.096635
  C     -0.667403   -0.567700    0.012260
  C     -1.372915   -1.765808    0.078366
  C     -1.527222    0.655599   -0.152218
  F     -2.268516    0.580377   -1.279326
  F     -2.420690    0.760667    0.855686
  F     -0.905191    1.836971   -0.207279
  C      1.553182    0.675449    0.033617
  F      2.870062    0.431461    0.129108
  F      1.401728    1.352734   -1.122056
  F      1.280096    1.539733    1.031596
  H     -1.267210   -3.886867    0.276447
  H      1.207096   -3.912963    0.425612
  H      2.463656   -1.808014    0.310540
  H     -2.449349   -1.739661    0.011670

 Total Charge           Charge          ....    0
 Multiplicity           Mult            ....    1
 Number of Electrons    NEL             ....  106
 Basis Dimension        Dim             ....  316

ORBITAL ENERGIES
----------------

  NO   OCC          E(Eh)            E(eV)
   0   2.0000     -24.527229      -667.4198
   1   2.0000     -24.524600      -667.3483
   2   2.0000     -24.521451      -667.2626
   3   2.0000     -24.521381      -667.2607
   4   2.0000     -24.521306      -667.2587
   5   2.0000     -24.521273      -667.2578
   6   2.0000     -10.294924      -280.1391
   7   2.0000     -10.294142      -280.1178
   8   2.0000     -10.086176      -274.4588
   9   2.0000     -10.085403      -274.4378
  10   2.0000     -10.060748      -273.7669
  11   2.0000     -10.060171      -273.7512
  12   2.0000     -10.054640      -273.6007
  13   2.0000     -10.054113      -273.5863
  14   2.0000      -1.285993       -34.9937
  15   2.0000      -1.281313       -34.8663
  16   2.0000      -1.196832       -32.5674
  17   2.0000      -1.190820       -32.4039
  18   2.0000      -1.190206       -32.3871
  19   2.0000      -1.188842       -32.3500
  20   2.0000      -0.864172       -23.5153
  21   2.0000      -0.771716       -20.9995
  22   2.0000      -0.764460       -20.8020
  23   2.0000      -0.690450       -18.7881
  24   2.0000      -0.668587       -18.1932
  25   2.0000      -0.611147       -16.6302
  26   2.0000      -0.609356       -16.5814
  27   2.0000      -0.571857       -15.5610
  28   2.0000      -0.562589       -15.3088
  29   2.0000      -0.561714       -15.2850
  30   2.0000      -0.559774       -15.2322
  31   2.0000      -0.553169       -15.0525
  32   2.0000      -0.513677       -13.9779
  33   2.0000      -0.463901       -12.6234
  34   2.0000      -0.450654       -12.2629
  35   2.0000      -0.441452       -12.0125
  36   2.0000      -0.438682       -11.9372
  37   2.0000      -0.434866       -11.8333
  38   2.0000      -0.433564       -11.7979
  39   2.0000      -0.422955       -11.5092
  40   2.0000      -0.404783       -11.0147
  41   2.0000      -0.394873       -10.7450
  42   2.0000      -0.392573       -10.6825
  43   2.0000      -0.386687       -10.5223
  44   2.0000      -0.379416       -10.3244
  45   2.0000      -0.377299       -10.2668
  46   2.0000      -0.377020       -10.2592
  47   2.0000      -0.367481        -9.9997
  48   2.0000      -0.364479        -9.9180
  49   2.0000      -0.337077        -9.1723
  50   2.0000      -0.332511        -9.0481
  51   2.0000      -0.266640        -7.2557
  52   2.0000      -0.262174        -7.1341
  53   0.0000      -0.075239        -2.0474
  54   0.0000      -0.059050        -1.6068
  55   0.0000       0.071295         1.9400
  56   0.0000       0.081185         2.2092
  57   0.0000       0.083823         2.2809

MULLIKEN ATOMIC CHARGES
-----------------------
   0 C :   -0.158530
   1 C :   -0.130950
   2 C :   -0.247883
   3 C :    0.086907
   4 C :    0.040033
   5 C :   -0.150343
   6 C :    0.520614
   7 F :   -0.217337
   8 F :   -0.217481
   9 F :   -0.209305
  10 C :    0.553396
  11 F :   -0.222328
  12 F :   -0.214173
  13 F :   -0.214326
  14 H :    0.191425
  15 H :    0.191125
  16 H :    0.202608
  17 H :    0.196548
Sum of atomic charges:   -0.0000000

LOEWDIN ATOMIC CHARGES
----------------------
   0 C :   -0.128375
   1 C :   -0.129301
   2 C :   -0.110169
   3 C :   -0.041589
   4 C :   -0.045234
   5 C :   -0.108635
   6 C :    0.534336
   7 F :   -0.217753
   8 F :   -0.217833
   9 F :   -0.196873
  10 C :    0.530004
  11 F :   -0.215034
  12 F :   -0.212499
  13 F :   -0.212749
  14 H :    0.188128
  15 H :    0.187755
  16 H :    0.198254
  17 H :    0.197566

  Mayer bond orders larger than 0.100000
B(  0-C ,  1-C ) :   1.3684 B(  0-C ,  5-C ) :   1.3726 B(  0-C , 14-H ) :   0.9532
B(  1-C ,  2-C ) :   1.3479 B(  1-C , 15-H ) :   0.9526 B(  2-C ,  3-C ) :   1.3019
B(  2-C , 16-H ) :   0.9642 B(  3-C ,  4-C ) :   1.3683 B(  3-C , 10-C ) :   1.0070
B(  4-C ,  5-C ) :   1.3924 B(  4-C ,  6-C ) :   0.9829 B(  5-C , 17-H ) :   0.9076
B(  6-C ,  7-F ) :   1.0147 B(  6-C ,  8-F ) :   1.0159 B(  6-C ,  9-F ) :   1.0692
B( 10-C , 11-F ) :   1.0784 B( 10-C , 12-F ) :   1.0053 B( 10-C , 13-F ) :   1.0049

Dispersion correction           -0.006798080
FINAL SINGLE POINT ENERGY      -906.268897884359

DIPOLE MOMENT
-------------

Method             : SCF
Type of density    : Electron Density
Multiplicity       :   1
Irrep              :   0
Energy             :  -906.2787403828014021 Eh
Relativity type    :
Basis              : AO
                                X                 Y                 Z
Electronic contribution:      0.064487553      14.340777127      -1.295538587
Nuclear contribution   :     -0.003586366     -16.670261104       1.509706102
                        -----------------------------------------
Total Dipole Moment    :      0.060901186      -2.329483977       0.214167515
                        -----------------------------------------
Magnitude (a.u.)       :      2.340100912
Magnitude (Debye)      :      5.948063819

Rotational constants in cm-1:             0.028048             0.024751             0.015250
Rotational constants in MHz :           840.855688           742.011210           457.189109

                             ****ORCA TERMINATED NORMALLY****
TOTAL RUN TIME: 0 days 0 hours 0 minutes 48 seconds 500 msec
