                         Program Version 6.0.0  -   RELEASE  -
|  1> ! r2scan-3c def2/J RI DEFGRID2 scfconv6 printgap
|  2> %output
|  3>     printlevel normal
|  4> end
|  5> * xyz 0 1
|  6> C -1.2229188049 -0.2523509813 0.0160996163
|  7> N 0.0041662517 0.5370002564 -0.0844947222
|  8> C 1.2185698839 -0.2494702388 0.015710773
|  9> H -1.8208945816 -0.0976121292 -0.8845236563
| 10> H -1.8271803286 0.0294279351 0.8794459409
| 11> H -0.9972778782 -1.3166121882 0.0949015232
| 12> H 0.0129846654 1.2544549189 0.6311137916
| 13> H 2.0738943499 0.4194415841 -0.0547452506
| 14> H 1.2540166192 -0.9462650565 -0.8217690516
| 15> H 1.2983836719 -0.8254232743 0.9506892252
| 16> *
| 17>
| 18>                          ****END OF INPUT****

CARTESIAN COORDINATES (ANGSTROEM)
---------------------------------
  C     -1.222919   -0.252351    0.016100
  N      0.004166    0.537000   -0.084495
  C      1.218570   -0.249470    0.015711
  H     -1.820895   -0.097612   -0.884524
  H     -1.827180    0.029428    0.879446
  H     -0.997278   -1.316612    0.094902
  H      0.012985    1.254455    0.631114
  H      2.073894    0.419442   -0.054745
  H      1.254017   -0.946265   -0.821769
  H      1.298384   -0.825423    0.950689

 Total Charge           Charge          ....    0
 Multiplicity           Mult            ....    1
 Number of Electrons    NEL             ....   26
 Basis Dimension        Dim             ....   97

ORBITAL ENERGIES
----------------

  NO   OCC          E(Eh)            E(eV)
   0   2.0000     -14.137328      -384.6962
   1   2.0000     -10.041442      -273.2415
   2   2.0000     -10.041436      -273.2414
   3   2.0000      -0.859020       -23.3751
   4   2.0000      -0.664736       -18.0884
   5   2.0000      -0.590989       -16.0816
   6   2.0000      -0.453810       -12.3488
   7   2.0000      -0.404715       -11.0129
   8   2.0000      -0.400338       -10.8938
   9   2.0000      -0.358582        -9.7575
  10   2.0000      -0.331029        -9.0078
  11   2.0000      -0.326850        -8.8940
  12   2.0000      -0.182979        -4.9791
  13   0.0000       0.070099         1.9075
  14   0.0000       0.120013         3.2657
  15   0.0000       0.127618         3.4727
  16   0.0000       0.137377         3.7382
  17   0.0000       0.166543         4.5319

MULLIKEN ATOMIC CHARGES
-----------------------
   0 C :   -0.347853
   1 N :   -0.364281
   2 C :   -0.356194
   3 H :    0.152602
   4 H :    0.134130
   5 H :    0.135918
   6 H :    0.236002
   7 H :    0.141170
   8 H :    0.145554
   9 H :    0.122951
Sum of atomic charges:    0.0000000

LOEWDIN ATOMIC CHARGES
----------------------
   0 C :   -0.165802
   1 N :   -0.876578
   2 C :   -0.162777
   3 H :    0.162231
   4 H :    0.159316
   5 H :    0.165495
   6 H :    0.238405
   7 H :    0.169578
   8 H :    0.167630
   9 H :    0.142502

  Mayer bond orders larger than 0.100000
B(  0-C ,  1-N ) :   0.9128 B(  0-C ,  3-H ) :   0.9840 B(  0-C ,  4-H ) :   0.9710
B(  0-C ,  5-H ) :   0.9683 B(  1-N ,  2-C ) :   0.9257 B(  1-N ,  6-H ) :   0.9171
B(  2-C ,  7-H ) :   0.9767 B(  2-C ,  8-H ) :   0.9751 B(  2-C ,  9-H ) :   0.9556

Dispersion correction           -0.001487130
FINAL SINGLE POINT ENERGY      -135.104817452725

DIPOLE MOMENT
-------------

Method             : SCF
Type of density    : Electron Density
Multiplicity       :   1
Irrep              :   0
Energy             :  -135.1135690742085558 Eh
Relativity type    :
Basis              : AO
                                X                 Y                 Z
Electronic contribution:     -0.004094165       1.263794042      -0.336692492
Nuclear contribution   :     -0.005675016      -1.387963327       0.745486097
                        -----------------------------------------
Total Dipole Moment    :     -0.009769181      -0.124169285       0.408793605
                        -----------------------------------------
Magnitude (a.u.)       :      0.427347236
Magnitude (Debye)      :      1.086230349

Rotational constants in cm-1:             1.175451             0.307573             0.272818
Rotational constants in MHz :         35239.146362          9220.815412          8178.880951

                             ****ORCA TERMINATED NORMALLY****
TOTAL RUN TIME: 0 days 0 hours 0 minutes 8 seconds 284 msec
