                         Program Version 6.0.0  -   RELEASE  -
|  1> ! r2scan-3c def2/J RI DEFGRID2 scfconv6 printgap
|  2> %output
|  3>     printlevel normal
|  4> end
|  5> %cpcm
|  6>     smd true
|  7>     smdsolvent "water"
|  8> end
|  9> * xyz 0 1
| 10> C -1.2229188049 -0.2523509813 0.0160996163
| 11> N 0.0041662517 0.5370002564 -0.0844947222
| 12> C 1.2185698839 -0.2494702388 0.015710773
| 13> H -1.8208945816 -0.0976121292 -0.8845236563
| 14> H -1.8271803286 0.0294279351 0.8794459409
| 15> H -0.9972778782 -1.3166121882 0.0949015232
| 16> H 0.0129846654 1.2544549189 0.6311137916
| 17> H 2.0738943499 0.4194415841 -0.0547452506
| 18> H 1.2540166192 -0.9462650565 -0.8217690516
| 19> H 1.2983836719 -0.8254232743 0.9506892252
| 20> *
| 21>
| 22>                          ****END OF INPUT****

CARTESIAN COORDINATES (ANGSTROEM)
---------------------------------
  C     -1.222919   -0.252351    0.016100
  N      0.004166    0.537000   -0.084495
  C      1.218570   -0.249470    0.015711
  H     -1.820895   -0.097612   -0.884524
  H     -1.827180    0.029428    0.879446
  H     -0.997278   -1.316612    0.094902
  H      0.012985    1.254455    0.631114
  H      2.073894    0.419442   -0.054745
  H      1.254017   -0.946265   -0.821769
  H      1.298384   -0.825423    0.950689

 Total Charge           Charge          ....    0
 Multiplicity           Mult            ....    1
 Number of Electrons    NEL             ....   26
 Basis Dimension        Dim             ....   97

ORBITAL ENERGIES
----------------

  NO   OCC          E(Eh)            E(eV)
   0   2.0000     -14.133210      -384.5842
   1   2.0000     -10.034504      -273.0527
   2   2.0000     -10.033912      -273.0366
   3   2.0000      -0.854321       -23.2472
   4   2.0000      -0.658665       -17.9232
   5   2.0000      -0.584394       -15.9022
   6   2.0000      -0.447105       -12.1663
   7   2.0000      -0.400170       -10.8892
   8   2.0000      -0.394710       -10.7406
   9   2.0000      -0.351724        -9.5709
  10   2.0000      -0.323443        -8.8013
  11   2.0000      -0.320057        -8.7092
  12   2.0000      -0.183272        -4.9871
  13   0.0000       0.078789         2.1440
  14   0.0000       0.126893         3.4529
  15   0.0000       0.135696         3.6925
  16   0.0000       0.147503         4.0138
  17   0.0000       0.173780         4.7288

MULLIKEN ATOMIC CHARGES
-----------------------
   0 C :   -0.379400
   1 N :   -0.425232
   2 C :   -0.380589
   3 H :    0.151524
   4 H :    0.156078
   5 H :    0.152870
   6 H :    0.281627
   7 H :    0.154292
   8 H :    0.155305
   9 H :    0.133525
Sum of atomic charges:    0.0000000

LOEWDIN ATOMIC CHARGES
----------------------
   0 C :   -0.171716
   1 N :   -0.898507
   2 C :   -0.168210
   3 H :    0.161090
   4 H :    0.167010
   5 H :    0.171150
   6 H :    0.248587
   7 H :    0.173047
   8 H :    0.169785
   9 H :    0.147763

  Mayer bond orders larger than 0.100000
B(  0-C ,  1-N ) :   0.9160 B(  0-C ,  3-H ) :   0.9786 B(  0-C ,  4-H ) :   0.9688
B(  0-C ,  5-H ) :   0.9661 B(  1-N ,  2-C ) :   0.9314 B(  1-N ,  6-H ) :   0.8992
B(  2-C ,  7-H ) :   0.9721 B(  2-C ,  8-H ) :   0.9694 B(  2-C ,  9-H ) :   0.9571

Dispersion correction           -0.001487130
FINAL SINGLE POINT ENERGY      -135.110278087069

DIPOLE MOMENT
-------------

Method             : SCF
Type of density    : Electron Density
Multiplicity       :   1
Irrep              :   0
Energy             :  -135.1190297085528016 Eh
Relativity type    :
Basis              : AO
                                X                 Y                 Z
Electronic contribution:     -0.005948349       1.204720909      -0.170671184
Nuclear contribution   :     -0.005675016      -1.387963327       0.745486097
                        -----------------------------------------
Total Dipole Moment    :     -0.011623365      -0.183242417       0.574814913
                        -----------------------------------------
Magnitude (a.u.)       :      0.603427767
Magnitude (Debye)      :      1.533791492

Rotational constants in cm-1:             1.175451             0.307573             0.272818
Rotational constants in MHz :         35239.146362          9220.815412          8178.880951

                             ****ORCA TERMINATED NORMALLY****
TOTAL RUN TIME: 0 days 0 hours 0 minutes 10 seconds 85 msec
