                         Program Version 6.0.0  -   RELEASE  -
|  1> ! r2scan-3c def2/J RI DEFGRID2 scfconv6 printgap
|  2> %output
|  3>     printlevel normal
|  4> end
|  5> * xyz 0 1
|  6> C -2.7691918321 -0.7774138026 -0.0001652761
|  7> O -1.7937705075 0.2446592839 0.0001285529
|  8> C -0.4657681319 -0.1191472068 7.05467e-05
|  9> C 0.0140541899 -1.4168890576 8.30934e-05
| 10> C 1.3821534592 -1.6509731817 2.43933e-05
| 11> C 2.2716902286 -0.595186278 -5.71448e-05
| 12> C 1.8005170989 0.7080016666 -6.68202e-05
| 13> C 0.4388694284 0.956588265 3.2429e-06
| 14> O -0.0110386855 2.2419712985 1.1477e-06
| 15> H -2.6866492339 -1.3998900179 -0.8947192534
| 16> H -3.7259228686 -0.2600851922 -0.0001874284
| 17> H -2.6868752419 -1.4002120281 0.8941837623
| 18> H -0.6663429452 -2.2528267317 0.0001412246
| 19> H 1.7430020138 -2.6673988995 3.77503e-05
| 20> H 3.3345382273 -0.7773942715 -0.0001190885
| 21> H 2.4740255123 1.5499106149 -0.0001361734
| 22> H -0.981950341 2.2346680479 2.69424e-05
| 23> *
| 24>
| 25>                          ****END OF INPUT****

CARTESIAN COORDINATES (ANGSTROEM)
---------------------------------
  C     -2.769192   -0.777414   -0.000165
  O     -1.793771    0.244659    0.000129
  C     -0.465768   -0.119147    0.000071
  C      0.014054   -1.416889    0.000083
  C      1.382153   -1.650973    0.000024
  C      2.271690   -0.595186   -0.000057
  C      1.800517    0.708002   -0.000067
  C      0.438869    0.956588    0.000003
  O     -0.011039    2.241971    0.000001
  H     -2.686649   -1.399890   -0.894719
  H     -3.725923   -0.260085   -0.000187
  H     -2.686875   -1.400212    0.894184
  H     -0.666343   -2.252827    0.000141
  H      1.743002   -2.667399    0.000038
  H      3.334538   -0.777394   -0.000119
  H      2.474026    1.549911   -0.000136
  H     -0.981950    2.234668    0.000027

 Total Charge           Charge          ....    0
 Multiplicity           Mult            ....    1
 Number of Electrons    NEL             ....   66
 Basis Dimension        Dim             ....  221

ORBITAL ENERGIES
----------------

  NO   OCC          E(Eh)            E(eV)
   0   2.0000     -18.997300      -516.9428
   1   2.0000     -18.978607      -516.4342
   2   2.0000     -10.095609      -274.7155
   3   2.0000     -10.094654      -274.6895
   4   2.0000     -10.092123      -274.6206
   5   2.0000     -10.035513      -273.0802
   6   2.0000     -10.027988      -272.8754
   7   2.0000     -10.027705      -272.8677
   8   2.0000     -10.027287      -272.8563
   9   2.0000      -1.046940       -28.4887
  10   2.0000      -1.016018       -27.6472
  11   2.0000      -0.819611       -22.3028
  12   2.0000      -0.727506       -19.7964
  13   2.0000      -0.713491       -19.4151
  14   2.0000      -0.670168       -18.2362
  15   2.0000      -0.578465       -15.7408
  16   2.0000      -0.576780       -15.6950
  17   2.0000      -0.524454       -14.2711
  18   2.0000      -0.492267       -13.3953
  19   2.0000      -0.458252       -12.4697
  20   2.0000      -0.447297       -12.1716
  21   2.0000      -0.428291       -11.6544
  22   2.0000      -0.416009       -11.3202
  23   2.0000      -0.395535       -10.7631
  24   2.0000      -0.382072       -10.3967
  25   2.0000      -0.357767        -9.7353
  26   2.0000      -0.349468        -9.5095
  27   2.0000      -0.317411        -8.6372
  28   2.0000      -0.316777        -8.6200
  29   2.0000      -0.307943        -8.3796
  30   2.0000      -0.298227        -8.1152
  31   2.0000      -0.222777        -6.0621
  32   2.0000      -0.190937        -5.1956
  33   0.0000      -0.022447        -0.6108
  34   0.0000      -0.011035        -0.3003
  35   0.0000       0.037956         1.0328
  36   0.0000       0.083112         2.2616
  37   0.0000       0.101979         2.7750

MULLIKEN ATOMIC CHARGES
-----------------------
   0 C :   -0.325265
   1 O :   -0.215652
   2 C :    0.174753
   3 C :   -0.236651
   4 C :   -0.189917
   5 C :   -0.141946
   6 C :   -0.276326
   7 C :    0.215612
   8 O :   -0.391054
   9 H :    0.155420
  10 H :    0.153911
  11 H :    0.155407
  12 H :    0.146466
  13 H :    0.145622
  14 H :    0.147487
  15 H :    0.159522
  16 H :    0.322612
Sum of atomic charges:   -0.0000000

LOEWDIN ATOMIC CHARGES
----------------------
   0 C :   -0.048532
   1 O :   -0.709885
   2 C :    0.187606
   3 C :   -0.166522
   4 C :   -0.181579
   5 C :   -0.173284
   6 C :   -0.140728
   7 C :    0.205803
   8 O :   -0.472889
   9 H :    0.166775
  10 H :    0.180511
  11 H :    0.166768
  12 H :    0.174904
  13 H :    0.166735
  14 H :    0.167499
  15 H :    0.180554
  16 H :    0.296265

  Mayer bond orders larger than 0.100000
B(  0-C ,  1-O ) :   0.8594 B(  0-C ,  9-H ) :   0.9603 B(  0-C , 10-H ) :   0.9678
B(  0-C , 11-H ) :   0.9603 B(  1-O ,  2-C ) :   1.0560 B(  2-C ,  3-C ) :   1.3296
B(  2-C ,  7-C ) :   1.4147 B(  3-C ,  4-C ) :   1.3694 B(  3-C , 12-H ) :   0.9262
B(  4-C ,  5-C ) :   1.4518 B(  4-C , 13-H ) :   0.9488 B(  5-C ,  6-C ) :   1.3624
B(  5-C , 14-H ) :   0.9468 B(  6-C ,  7-C ) :   1.3854 B(  6-C , 15-H ) :   0.9476
B(  7-C ,  8-O ) :   0.9749 B(  8-O , 16-H ) :   0.8526

Dispersion correction           -0.005389421
FINAL SINGLE POINT ENERGY      -421.903407881751

DIPOLE MOMENT
-------------

Method             : SCF
Type of density    : Electron Density
Multiplicity       :   1
Irrep              :   0
Energy             :  -421.9066343166748538 Eh
Relativity type    :
Basis              : AO
                                X                 Y                 Z
Electronic contribution:      2.186813287       4.019884278       0.000600135
Nuclear contribution   :     -3.025292172      -4.628899591      -0.000722594
                        -----------------------------------------
Total Dipole Moment    :     -0.838478885      -0.609015312      -0.000122459
                        -----------------------------------------
Magnitude (a.u.)       :      1.036313903
Magnitude (Debye)      :      2.634100607

Rotational constants in cm-1:             0.087387             0.051967             0.032792
Rotational constants in MHz :          2619.796593          1557.921853           983.084206

                             ****ORCA TERMINATED NORMALLY****
TOTAL RUN TIME: 0 days 0 hours 0 minutes 27 seconds 841 msec
