                         Program Version 6.0.0  -   RELEASE  -
|  1> ! r2scan-3c def2/J RI DEFGRID2 scfconv6 printgap
|  2> %output
|  3>     printlevel normal
|  4> end
|  5> %cpcm
|  6>     smd true
|  7>     smdsolvent "water"
|  8> end
|  9> * xyz 0 1
| 10> C -2.7691918321 -0.7774138026 -0.0001652761
| 11> O -1.7937705075 0.2446592839 0.0001285529
| 12> C -0.4657681319 -0.1191472068 7.05467e-05
| 13> C 0.0140541899 -1.4168890576 8.30934e-05
| 14> C 1.3821534592 -1.6509731817 2.43933e-05
| 15> C 2.2716902286 -0.595186278 -5.71448e-05
| 16> C 1.8005170989 0.7080016666 -6.68202e-05
| 17> C 0.4388694284 0.956588265 3.2429e-06
| 18> O -0.0110386855 2.2419712985 1.1477e-06
| 19> H -2.6866492339 -1.3998900179 -0.8947192534
| 20> H -3.7259228686 -0.2600851922 -0.0001874284
| 21> H -2.6868752419 -1.4002120281 0.8941837623
| 22> H -0.6663429452 -2.2528267317 0.0001412246
| 23> H 1.7430020138 -2.6673988995 3.77503e-05
| 24> H 3.3345382273 -0.7773942715 -0.0001190885
| 25> H 2.4740255123 1.5499106149 -0.0001361734
| 26> H -0.981950341 2.2346680479 2.69424e-05
| 27> *
| 28>
| 29>                          ****END OF INPUT****

CARTESIAN COORDINATES (ANGSTROEM)
---------------------------------
  C     -2.769192   -0.777414   -0.000165
  O     -1.793771    0.244659    0.000129
  C     -0.465768   -0.119147    0.000071
  C      0.014054   -1.416889    0.000083
  C      1.382153   -1.650973    0.000024
  C      2.271690   -0.595186   -0.000057
  C      1.800517    0.708002   -0.000067
  C      0.438869    0.956588    0.000003
  O     -0.011039    2.241971    0.000001
  H     -2.686649   -1.399890   -0.894719
  H     -3.725923   -0.260085   -0.000187
  H     -2.686875   -1.400212    0.894184
  H     -0.666343   -2.252827    0.000141
  H      1.743002   -2.667399    0.000038
  H      3.334538   -0.777394   -0.000119
  H      2.474026    1.549911   -0.000136
  H     -0.981950    2.234668    0.000027

 Total Charge           Charge          ....    0
 Multiplicity           Mult            ....    1
 Number of Electrons    NEL             ....   66
 Basis Dimension        Dim             ....  221

ORBITAL ENERGIES
----------------

  NO   OCC          E(Eh)            E(eV)
   0   2.0000     -18.992174      -516.8033
   1   2.0000     -18.984716      -516.6004
   2   2.0000     -10.096771      -274.7471
   3   2.0000     -10.096139      -274.7299
   4   2.0000     -10.074626      -274.1445
   5   2.0000     -10.034136      -273.0427
   6   2.0000     -10.031536      -272.9720
   7   2.0000     -10.029562      -272.9183
   8   2.0000     -10.028720      -272.8954
   9   2.0000      -1.044657       -28.4266
  10   2.0000      -1.018647       -27.7188
  11   2.0000      -0.822891       -22.3920
  12   2.0000      -0.724658       -19.7189
  13   2.0000      -0.715437       -19.4680
  14   2.0000      -0.662373       -18.0241
  15   2.0000      -0.579413       -15.7666
  16   2.0000      -0.574385       -15.6298
  17   2.0000      -0.521789       -14.1986
  18   2.0000      -0.488315       -13.2877
  19   2.0000      -0.456615       -12.4251
  20   2.0000      -0.436219       -11.8701
  21   2.0000      -0.427489       -11.6326
  22   2.0000      -0.409114       -11.1326
  23   2.0000      -0.390534       -10.6270
  24   2.0000      -0.384579       -10.4649
  25   2.0000      -0.363303        -9.8860
  26   2.0000      -0.345050        -9.3893
  27   2.0000      -0.320663        -8.7257
  28   2.0000      -0.315369        -8.5816
  29   2.0000      -0.303917        -8.2700
  30   2.0000      -0.296718        -8.0741
  31   2.0000      -0.227184        -6.1820
  32   2.0000      -0.195391        -5.3169
  33   0.0000      -0.026809        -0.7295
  34   0.0000      -0.015872        -0.4319
  35   0.0000       0.045520         1.2387
  36   0.0000       0.098477         2.6797
  37   0.0000       0.115550         3.1443

MULLIKEN ATOMIC CHARGES
-----------------------
   0 C :   -0.333170
   1 O :   -0.238520
   2 C :    0.174178
   3 C :   -0.241538
   4 C :   -0.235475
   5 C :   -0.188556
   6 C :   -0.308365
   7 C :    0.191466
   8 O :   -0.436913
   9 H :    0.172122
  10 H :    0.174471
  11 H :    0.172118
  12 H :    0.186804
  13 H :    0.178284
  14 H :    0.180368
  15 H :    0.187684
  16 H :    0.365043
Sum of atomic charges:   -0.0000000

LOEWDIN ATOMIC CHARGES
----------------------
   0 C :   -0.044250
   1 O :   -0.715858
   2 C :    0.184293
   3 C :   -0.166286
   4 C :   -0.192948
   5 C :   -0.189115
   6 C :   -0.157186
   7 C :    0.192031
   8 O :   -0.494863
   9 H :    0.175284
  10 H :    0.188403
  11 H :    0.175279
  12 H :    0.190795
  13 H :    0.177633
  14 H :    0.177826
  15 H :    0.189044
  16 H :    0.309918

  Mayer bond orders larger than 0.100000
B(  0-C ,  1-O ) :   0.8525 B(  0-C ,  9-H ) :   0.9534 B(  0-C , 10-H ) :   0.9598
B(  0-C , 11-H ) :   0.9534 B(  1-O ,  2-C ) :   1.0384 B(  2-C ,  3-C ) :   1.3189
B(  2-C ,  7-C ) :   1.3800 B(  3-C ,  4-C ) :   1.3289 B(  3-C , 12-H ) :   0.9338
B(  4-C ,  5-C ) :   1.4064 B(  4-C , 13-H ) :   0.9644 B(  5-C ,  6-C ) :   1.3345
B(  5-C , 14-H ) :   0.9560 B(  6-C ,  7-C ) :   1.3399 B(  6-C , 15-H ) :   0.9595
B(  7-C ,  8-O ) :   0.9636 B(  8-O , 16-H ) :   0.8321

Dispersion correction           -0.005389421
FINAL SINGLE POINT ENERGY      -421.910550830069

DIPOLE MOMENT
-------------

Method             : SCF
Type of density    : Electron Density
Multiplicity       :   1
Irrep              :   0
Energy             :  -421.9137772649923477 Eh
Relativity type    :
Basis              : AO
                                X                 Y                 Z
Electronic contribution:      1.885877361       3.725202156       0.000562613
Nuclear contribution   :     -3.025292172      -4.628899591      -0.000722594
                        -----------------------------------------
Total Dipole Moment    :     -1.139414811      -0.903697435      -0.000159981
                        -----------------------------------------
Magnitude (a.u.)       :      1.454281675
Magnitude (Debye)      :      3.696490254

Rotational constants in cm-1:             0.087387             0.051967             0.032792
Rotational constants in MHz :          2619.796593          1557.921853           983.084206

                             ****ORCA TERMINATED NORMALLY****
TOTAL RUN TIME: 0 days 0 hours 0 minutes 32 seconds 920 msec
