                         Program Version 6.0.0  -   RELEASE  -
|  1> ! pbe def2-sv(p) def2/J RI DEFGRID1 loosescf d4 GCP(DFT/SV(P)) printgap
|  2> %output
|  3>     printlevel normal
|  4> end
|  5> * xyz 0 1
|  6> C -2.6326322505 0.46568552 1.2026140215
|  7> C -1.2405088607 0.2344677777 0.6232029395
|  8> H -0.5558960713 -0.0284823394 1.4375502463
|  9> C -0.6921047195 1.5024139085 -0.0614655113
| 10> C 0.2804851075 1.1978221248 -1.2010047162
| 11> C 1.1002321184 -0.0682546135 -0.9139165532
| 12> H 1.8108748803 -0.2033390135 -1.7391664325
| 13> C 0.1197204178 -1.2425716896 -0.9536380157
| 14> C -1.2075760506 -0.9591234404 -0.2970632843
| 15> O -2.1714132991 -1.6798729695 -0.48166796
| 16> C 1.9409429278 0.0606308933 0.3377174942
| 17> C 1.8912863808 -0.7592333483 1.3764729319
| 18> C 2.918088817 1.2010341933 0.3116026923
| 19> H -3.3444745568 0.6665425502 0.4047703167
| 20> H -2.9712472298 -0.4198932498 1.7353655992
| 21> H -2.620420379 1.3087024534 1.8877562323
| 22> H -1.5308325206 2.079713813 -0.4535145212
| 23> H -0.2003615484 2.1114820361 0.6978108287
| 24> H -0.2812790075 1.0241561181 -2.1216509772
| 25> H 0.9314893016 2.0542713395 -1.3695942433
| 26> H -0.0909921193 -1.5175314833 -1.9903450848
| 27> H 0.5404496943 -2.1352983858 -0.4869039666
| 28> H 2.5448766807 -0.6226731623 2.2217936374
| 29> H 1.2164262813 -1.5943591229 1.449064491
| 30> H 2.4042495399 2.1483295922 0.4642888484
| 31> H 3.6589005643 1.088725284 1.0980773051
| 32> H 3.4280579121 1.2472556097 -0.6482751601
| 33> *
| 34>
| 35>                          ****END OF INPUT****

CARTESIAN COORDINATES (ANGSTROEM)
---------------------------------
  C     -2.632632    0.465686    1.202614
  C     -1.240509    0.234468    0.623203
  H     -0.555896   -0.028482    1.437550
  C     -0.692105    1.502414   -0.061466
  C      0.280485    1.197822   -1.201005
  C      1.100232   -0.068255   -0.913917
  H      1.810875   -0.203339   -1.739166
  C      0.119720   -1.242572   -0.953638
  C     -1.207576   -0.959123   -0.297063
  O     -2.171413   -1.679873   -0.481668
  C      1.940943    0.060631    0.337717
  C      1.891286   -0.759233    1.376473
  C      2.918089    1.201034    0.311603
  H     -3.344475    0.666543    0.404770
  H     -2.971247   -0.419893    1.735366
  H     -2.620420    1.308702    1.887756
  H     -1.530833    2.079714   -0.453515
  H     -0.200362    2.111482    0.697811
  H     -0.281279    1.024156   -2.121651
  H      0.931489    2.054271   -1.369594
  H     -0.090992   -1.517531   -1.990345
  H      0.540450   -2.135298   -0.486904
  H      2.544877   -0.622673    2.221794
  H      1.216426   -1.594359    1.449064
  H      2.404250    2.148330    0.464289
  H      3.658901    1.088725    1.098077
  H      3.428058    1.247256   -0.648275

 Total Charge           Charge          ....    0
 Multiplicity           Mult            ....    1
 Number of Electrons    NEL             ....   84
 Basis Dimension        Dim             ....  186

ORBITAL ENERGIES
----------------

  NO   OCC          E(Eh)            E(eV)
   0   2.0000     -18.734800      -509.7998
   1   2.0000      -9.966640      -271.2061
   2   2.0000      -9.909886      -269.6617
   3   2.0000      -9.909387      -269.6481
   4   2.0000      -9.896128      -269.2873
   5   2.0000      -9.895843      -269.2796
   6   2.0000      -9.894000      -269.2294
   7   2.0000      -9.893015      -269.2026
   8   2.0000      -9.889350      -269.1029
   9   2.0000      -9.881570      -268.8912
  10   2.0000      -9.871709      -268.6229
  11   2.0000      -0.930275       -25.3141
  12   2.0000      -0.775377       -21.0991
  13   2.0000      -0.723909       -19.6986
  14   2.0000      -0.687949       -18.7200
  15   2.0000      -0.662102       -18.0167
  16   2.0000      -0.619381       -16.8542
  17   2.0000      -0.604197       -16.4410
  18   2.0000      -0.555364       -15.1122
  19   2.0000      -0.538640       -14.6571
  20   2.0000      -0.476575       -12.9683
  21   2.0000      -0.456392       -12.4191
  22   2.0000      -0.438071       -11.9205
  23   2.0000      -0.431277       -11.7356
  24   2.0000      -0.420360       -11.4386
  25   2.0000      -0.397549       -10.8179
  26   2.0000      -0.388527       -10.5724
  27   2.0000      -0.379440       -10.3251
  28   2.0000      -0.370672       -10.0865
  29   2.0000      -0.362881        -9.8745
  30   2.0000      -0.353308        -9.6140
  31   2.0000      -0.335367        -9.1258
  32   2.0000      -0.332991        -9.0612
  33   2.0000      -0.331523        -9.0212
  34   2.0000      -0.319957        -8.7065
  35   2.0000      -0.311731        -8.4826
  36   2.0000      -0.306419        -8.3381
  37   2.0000      -0.287449        -7.8219
  38   2.0000      -0.281441        -7.6584
  39   2.0000      -0.275923        -7.5083
  40   2.0000      -0.225565        -6.1379
  41   2.0000      -0.189508        -5.1568
  42   0.0000      -0.050098        -1.3632
  43   0.0000      -0.025200        -0.6857
  44   0.0000       0.023213         0.6317
  45   0.0000       0.054247         1.4761
  46   0.0000       0.057429         1.5627

MULLIKEN ATOMIC CHARGES
-----------------------
   0 C :   -0.206385
   1 C :   -0.158203
   2 H :    0.104393
   3 C :   -0.129716
   4 C :   -0.127024
   5 C :   -0.127581
   6 H :    0.082016
   7 C :   -0.086249
   8 C :   -0.040993
   9 O :   -0.167911
  10 C :   -0.067926
  11 C :   -0.232734
  12 C :   -0.224556
  13 H :    0.100015
  14 H :    0.105883
  15 H :    0.092705
  16 H :    0.088167
  17 H :    0.085963
  18 H :    0.086672
  19 H :    0.091711
  20 H :    0.101198
  21 H :    0.122249
  22 H :    0.084195
  23 H :    0.094483
  24 H :    0.119765
  25 H :    0.102902
  26 H :    0.106958
Sum of atomic charges:   -0.0000000

LOEWDIN ATOMIC CHARGES
----------------------
   0 C :   -0.323942
   1 C :   -0.184019
   2 H :    0.145034
   3 C :   -0.210285
   4 C :   -0.214737
   5 C :   -0.135658
   6 H :    0.130809
   7 C :   -0.238818
   8 C :    0.051774
   9 O :   -0.133209
  10 C :   -0.050191
  11 C :   -0.271059
  12 C :   -0.321460
  13 H :    0.121277
  14 H :    0.124132
  15 H :    0.117009
  16 H :    0.123130
  17 H :    0.121873
  18 H :    0.121731
  19 H :    0.118914
  20 H :    0.141270
  21 H :    0.144992
  22 H :    0.120630
  23 H :    0.117575
  24 H :    0.130185
  25 H :    0.126730
  26 H :    0.126313

  Mayer bond orders larger than 0.100000
B(  0-C ,  1-C ) :   1.1265 B(  0-C , 13-H ) :   0.9461 B(  0-C , 14-H ) :   0.9445
B(  0-C , 15-H ) :   0.9467 B(  1-C ,  2-H ) :   0.8251 B(  1-C ,  3-C ) :   1.0793
B(  1-C ,  8-C ) :   1.0097 B(  3-C ,  4-C ) :   1.1689 B(  3-C , 16-H ) :   0.9134
B(  3-C , 17-H ) :   0.8966 B(  4-C ,  5-C ) :   1.1052 B(  4-C , 18-H ) :   0.9013
B(  4-C , 19-H ) :   0.9071 B(  5-C ,  6-H ) :   0.8605 B(  5-C ,  7-C ) :   1.0757
B(  5-C , 10-C ) :   0.9908 B(  7-C ,  8-C ) :   1.0217 B(  7-C , 20-H ) :   0.8850
B(  7-C , 21-H ) :   0.8676 B(  8-C ,  9-O ) :   2.1885 B( 10-C , 11-C ) :   2.0484
B( 10-C , 12-C ) :   1.1100 B( 11-C , 22-H ) :   0.9006 B( 11-C , 23-H ) :   0.8873
B( 12-C , 24-H ) :   0.9223 B( 12-C , 25-H ) :   0.9380 B( 12-C , 26-H ) :   0.9341

Dispersion correction           -0.029855026
FINAL SINGLE POINT ENERGY      -464.824123094033

DIPOLE MOMENT
-------------

Method             : SCF
Type of density    : Electron Density
Multiplicity       :   1
Irrep              :   0
Energy             :  -464.9093464917054916 Eh
Relativity type    :
Basis              : AO
                                X                 Y                 Z
Electronic contribution:     -3.631688025      -5.977037334      -2.400187121
Nuclear contribution   :      4.602175799       6.737020651       2.419919751
                        -----------------------------------------
Total Dipole Moment    :      0.970487774       0.759983317       0.019732631
                        -----------------------------------------
Magnitude (a.u.)       :      1.232805961
Magnitude (Debye)      :      3.133543726

Rotational constants in cm-1:             0.058729             0.027393             0.025379
Rotational constants in MHz :          1760.664384           821.207228           760.845846

                             ****ORCA TERMINATED NORMALLY****
TOTAL RUN TIME: 0 days 0 hours 0 minutes 17 seconds 526 msec
