                         Program Version 6.0.0  -   RELEASE  -
|  1> ! wb97x-v def2-tzvp def2/J RIJCOSX DEFGRID2 scfconv7 GCP(DFT/TZ) printgap
|  2> %output
|  3>     printlevel normal
|  4> end
|  5> * xyz 0 1
|  6> C -3.7921298916536843 0.8946529120390674 -0.042497886652306964
|  7> O -2.345390624202697 0.9437862358867309 -0.043222045457307595
|  8> C -1.7201002928742701 -0.24956133082087428 0.03586935866149281
|  9> O -2.3293090989986904 -1.309696093643953 0.10933632642425513
| 10> C -0.2532267167906173 -0.12920387643578077 0.02093366549216542
| 11> C 0.399942867528153 1.1090760770040282 -0.07088878972951973
| 12> C 1.7819097837286721 1.1768573559326125 -0.08886410029606037
| 13> C 2.532120540417503 -0.00039668865114429465 -0.01557909362602872
| 14> C 1.8964875599350643 -1.2420356287385672 0.07979789980478588
| 15> C 0.5139981733308139 -1.2990005782470997 0.09713694539045332
| 16> O 3.8907186765501005 0.1193441556571066 -0.041506674942823826
| 17> H -4.115655138717859 1.9304210970866262 -0.14094713237897394
| 18> H -4.156632107230706 0.4700310494503306 0.8964102663028635
| 19> H -4.152501163780613 0.3014958706704903 -0.8866715335465327
| 20> H -0.17578040761543834 2.0250371540796057 -0.12911328277856046
| 21> H 2.2929965129737364 2.131043410218461 -0.16047105879175047
| 22> H 2.4900787367504758 -2.1497800222859174 0.13679077884437002
| 23> H 0.016933707747268018 -2.260031189259811 0.16980595742613128
| 24> H 4.294621729408711 -0.7593583082153317 0.011802240977293257
| 25> *
| 26>
| 27>                          ****END OF INPUT****

CARTESIAN COORDINATES (ANGSTROEM)
---------------------------------
  C     -3.792130    0.894653   -0.042498
  O     -2.345391    0.943786   -0.043222
  C     -1.720100   -0.249561    0.035869
  O     -2.329309   -1.309696    0.109336
  C     -0.253227   -0.129204    0.020934
  C      0.399943    1.109076   -0.070889
  C      1.781910    1.176857   -0.088864
  C      2.532121   -0.000397   -0.015579
  C      1.896488   -1.242036    0.079798
  C      0.513998   -1.299001    0.097137
  O      3.890719    0.119344   -0.041507
  H     -4.115655    1.930421   -0.140947
  H     -4.156632    0.470031    0.896410
  H     -4.152501    0.301496   -0.886672
  H     -0.175780    2.025037   -0.129113
  H      2.292997    2.131043   -0.160471
  H      2.490079   -2.149780    0.136791
  H      0.016934   -2.260031    0.169806
  H      4.294622   -0.759358    0.011802

 Total Charge           Charge          ....    0
 Multiplicity           Mult            ....    1
 Number of Electrons    NEL             ....   80
 Basis Dimension        Dim             ....  389

ORBITAL ENERGIES
----------------

  NO   OCC          E(Eh)            E(eV)
   0   2.0000     -21.718843      -590.9998
   1   2.0000     -21.717738      -590.9697
   2   2.0000     -21.651564      -589.1690
   3   2.0000     -12.176464      -331.3384
   4   2.0000     -12.131737      -330.1213
   5   2.0000     -12.102013      -329.3125
   6   2.0000     -12.069454      -328.4265
   7   2.0000     -12.069364      -328.4241
   8   2.0000     -12.063749      -328.2713
   9   2.0000     -12.062741      -328.2439
  10   2.0000     -12.057309      -328.0961
  11   2.0000      -1.755378       -47.7663
  12   2.0000      -1.735830       -47.2343
  13   2.0000      -1.686386       -45.8889
  14   2.0000      -1.401917       -38.1481
  15   2.0000      -1.319130       -35.8953
  16   2.0000      -1.293840       -35.2072
  17   2.0000      -1.268044       -34.5052
  18   2.0000      -1.186190       -32.2779
  19   2.0000      -1.137578       -30.9551
  20   2.0000      -1.123108       -30.5613
  21   2.0000      -1.087785       -29.6001
  22   2.0000      -1.055533       -28.7225
  23   2.0000      -1.037263       -28.2254
  24   2.0000      -1.018892       -27.7254
  25   2.0000      -0.994142       -27.0520
  26   2.0000      -0.967333       -26.3225
  27   2.0000      -0.964092       -26.2343
  28   2.0000      -0.952676       -25.9236
  29   2.0000      -0.913192       -24.8492
  30   2.0000      -0.901538       -24.5321
  31   2.0000      -0.895228       -24.3604
  32   2.0000      -0.890891       -24.2424
  33   2.0000      -0.858744       -23.3676
  34   2.0000      -0.839085       -22.8327
  35   2.0000      -0.823170       -22.3996
  36   2.0000      -0.820800       -22.3351
  37   2.0000      -0.782833       -21.3020
  38   2.0000      -0.659757       -17.9529
  39   2.0000      -0.656059       -17.8523
  40   0.0000      -0.341555        -9.2942
  41   0.0000      -0.248144        -6.7524
  42   0.0000      -0.218256        -5.9390
  43   0.0000      -0.181859        -4.9486
  44   0.0000      -0.148306        -4.0356

MULLIKEN ATOMIC CHARGES
-----------------------
   0 C :   -0.192103
   1 O :   -0.244811
   2 C :    0.343290
   3 O :   -0.371285
   4 C :    0.070771
   5 C :   -0.178390
   6 C :   -0.180919
   7 C :    0.256410
   8 C :   -0.170207
   9 C :   -0.197761
  10 O :   -0.378283
  11 H :    0.126610
  12 H :    0.129701
  13 H :    0.131067
  14 H :    0.140048
  15 H :    0.127488
  16 H :    0.116552
  17 H :    0.154327
  18 H :    0.317493
Sum of atomic charges:    0.0000000

LOEWDIN ATOMIC CHARGES
----------------------
   0 C :   -0.288818
   1 O :    0.227549
   2 C :   -0.424717
   3 O :    0.077471
   4 C :   -0.141294
   5 C :   -0.078911
   6 C :   -0.118597
   7 C :   -0.252345
   8 C :   -0.141914
   9 C :   -0.068491
  10 O :    0.084740
  11 H :    0.109274
  12 H :    0.111579
  13 H :    0.111983
  14 H :    0.153032
  15 H :    0.149706
  16 H :    0.142123
  17 H :    0.158045
  18 H :    0.189587

  Mayer bond orders larger than 0.100000
B(  0-C ,  1-O ) :   0.9074 B(  0-C , 11-H ) :   0.9738 B(  0-C , 12-H ) :   0.9782
B(  0-C , 13-H ) :   0.9778 B(  1-O ,  2-C ) :   1.2279 B(  1-O ,  4-C ) :  -0.1237
B(  2-C ,  3-O ) :   2.0291 B(  2-C ,  4-C ) :   0.9772 B(  4-C ,  5-C ) :   1.3749
B(  4-C ,  9-C ) :   1.4107 B(  5-C ,  6-C ) :   1.4630 B(  5-C , 14-H ) :   0.9607
B(  6-C ,  7-C ) :   1.3831 B(  6-C , 15-H ) :   0.9793 B(  7-C ,  8-C ) :   1.3445
B(  7-C , 10-O ) :   1.1736 B(  8-C ,  9-C ) :   1.4412 B(  8-C , 16-H ) :   0.9578
B(  9-C , 17-H ) :   0.9377 B( 10-O , 18-H ) :   0.8857

FINAL SINGLE POINT ENERGY      -535.388265210511

DIPOLE MOMENT
-------------

Method             : SCF
Type of density    : Electron Density
Multiplicity       :   1
Irrep              :   0
Energy             :  -535.3991499878112563 Eh
Relativity type    :
Basis              : AO
                                X                 Y                 Z
Electronic contribution:      3.794105676      -1.326890618       0.094613073
Nuclear contribution   :     -3.312993473       1.536882272      -0.119594714
                        -----------------------------------------
Total Dipole Moment    :      0.481112203       0.209991654      -0.024981640
                        -----------------------------------------
Magnitude (a.u.)       :      0.525537372
Magnitude (Debye)      :      1.335809841

Rotational constants in cm-1:             0.115106             0.019268             0.016558
Rotational constants in MHz :          3450.779382           577.649741           496.395179

                             ****ORCA TERMINATED NORMALLY****
TOTAL RUN TIME: 0 days 0 hours 3 minutes 37 seconds 969 msec
