                         Program Version 6.0.0  -   RELEASE  -
|  1> ! wb97x-v def2-tzvp def2/J RIJCOSX DEFGRID2 scfconv7 GCP(DFT/TZ) printgap
|  2> %output
|  3>     printlevel normal
|  4> end
|  5> %cpcm
|  6>     smd true
|  7>     smdsolvent "water"
|  8> end
|  9> * xyz 0 1
| 10> C -3.7921298916536843 0.8946529120390674 -0.042497886652306964
| 11> O -2.345390624202697 0.9437862358867309 -0.043222045457307595
| 12> C -1.7201002928742701 -0.24956133082087428 0.03586935866149281
| 13> O -2.3293090989986904 -1.309696093643953 0.10933632642425513
| 14> C -0.2532267167906173 -0.12920387643578077 0.02093366549216542
| 15> C 0.399942867528153 1.1090760770040282 -0.07088878972951973
| 16> C 1.7819097837286721 1.1768573559326125 -0.08886410029606037
| 17> C 2.532120540417503 -0.00039668865114429465 -0.01557909362602872
| 18> C 1.8964875599350643 -1.2420356287385672 0.07979789980478588
| 19> C 0.5139981733308139 -1.2990005782470997 0.09713694539045332
| 20> O 3.8907186765501005 0.1193441556571066 -0.041506674942823826
| 21> H -4.115655138717859 1.9304210970866262 -0.14094713237897394
| 22> H -4.156632107230706 0.4700310494503306 0.8964102663028635
| 23> H -4.152501163780613 0.3014958706704903 -0.8866715335465327
| 24> H -0.17578040761543834 2.0250371540796057 -0.12911328277856046
| 25> H 2.2929965129737364 2.131043410218461 -0.16047105879175047
| 26> H 2.4900787367504758 -2.1497800222859174 0.13679077884437002
| 27> H 0.016933707747268018 -2.260031189259811 0.16980595742613128
| 28> H 4.294621729408711 -0.7593583082153317 0.011802240977293257
| 29> *
| 30>
| 31>                          ****END OF INPUT****

CARTESIAN COORDINATES (ANGSTROEM)
---------------------------------
  C     -3.792130    0.894653   -0.042498
  O     -2.345391    0.943786   -0.043222
  C     -1.720100   -0.249561    0.035869
  O     -2.329309   -1.309696    0.109336
  C     -0.253227   -0.129204    0.020934
  C      0.399943    1.109076   -0.070889
  C      1.781910    1.176857   -0.088864
  C      2.532121   -0.000397   -0.015579
  C      1.896488   -1.242036    0.079798
  C      0.513998   -1.299001    0.097137
  O      3.890719    0.119344   -0.041507
  H     -4.115655    1.930421   -0.140947
  H     -4.156632    0.470031    0.896410
  H     -4.152501    0.301496   -0.886672
  H     -0.175780    2.025037   -0.129113
  H      2.292997    2.131043   -0.160471
  H      2.490079   -2.149780    0.136791
  H      0.016934   -2.260031    0.169806
  H      4.294622   -0.759358    0.011802

 Total Charge           Charge          ....    0
 Multiplicity           Mult            ....    1
 Number of Electrons    NEL             ....   80
 Basis Dimension        Dim             ....  389

ORBITAL ENERGIES
----------------

  NO   OCC          E(Eh)            E(eV)
   0   2.0000     -21.723651      -591.1306
   1   2.0000     -21.710095      -590.7617
   2   2.0000     -21.667043      -589.5902
   3   2.0000     -12.189322      -331.6883
   4   2.0000     -12.127613      -330.0091
   5   2.0000     -12.092780      -329.0613
   6   2.0000     -12.067230      -328.3660
   7   2.0000     -12.066797      -328.3542
   8   2.0000     -12.063607      -328.2674
   9   2.0000     -12.054801      -328.0278
  10   2.0000     -12.053026      -327.9795
  11   2.0000      -1.764069       -48.0027
  12   2.0000      -1.727073       -46.9960
  13   2.0000      -1.700598       -46.2756
  14   2.0000      -1.399919       -38.0937
  15   2.0000      -1.318845       -35.8876
  16   2.0000      -1.290092       -35.1052
  17   2.0000      -1.266445       -34.4617
  18   2.0000      -1.182232       -32.1702
  19   2.0000      -1.136013       -30.9125
  20   2.0000      -1.125690       -30.6316
  21   2.0000      -1.087599       -29.5951
  22   2.0000      -1.065648       -28.9978
  23   2.0000      -1.037510       -28.2321
  24   2.0000      -1.015438       -27.6315
  25   2.0000      -0.999043       -27.1853
  26   2.0000      -0.968937       -26.3661
  27   2.0000      -0.957255       -26.0482
  28   2.0000      -0.949386       -25.8341
  29   2.0000      -0.913477       -24.8570
  30   2.0000      -0.910662       -24.7804
  31   2.0000      -0.903426       -24.5835
  32   2.0000      -0.884706       -24.0741
  33   2.0000      -0.866208       -23.5707
  34   2.0000      -0.831790       -22.6342
  35   2.0000      -0.817309       -22.2401
  36   2.0000      -0.815092       -22.1798
  37   2.0000      -0.781530       -21.2665
  38   2.0000      -0.658311       -17.9135
  39   2.0000      -0.653692       -17.7879
  40   0.0000      -0.346941        -9.4407
  41   0.0000      -0.244775        -6.6607
  42   0.0000      -0.219362        -5.9692
  43   0.0000      -0.178314        -4.8522
  44   0.0000      -0.140367        -3.8196

MULLIKEN ATOMIC CHARGES
-----------------------
   0 C :   -0.233710
   1 O :   -0.259557
   2 C :    0.423324
   3 O :   -0.483458
   4 C :    0.100483
   5 C :   -0.219432
   6 C :   -0.235291
   7 C :    0.285416
   8 C :   -0.236606
   9 C :   -0.206442
  10 O :   -0.448203
  11 H :    0.156805
  12 H :    0.150011
  13 H :    0.149602
  14 H :    0.168840
  15 H :    0.161954
  16 H :    0.175864
  17 H :    0.166968
  18 H :    0.383433
Sum of atomic charges:    0.0000000

LOEWDIN ATOMIC CHARGES
----------------------
   0 C :   -0.285600
   1 O :    0.226756
   2 C :   -0.413052
   3 O :    0.017347
   4 C :   -0.152909
   5 C :   -0.083312
   6 C :   -0.123963
   7 C :   -0.252515
   8 C :   -0.128854
   9 C :   -0.077664
  10 O :    0.067144
  11 H :    0.119553
  12 H :    0.116192
  13 H :    0.116210
  14 H :    0.159782
  15 H :    0.158061
  16 H :    0.160159
  17 H :    0.160414
  18 H :    0.216249

  Mayer bond orders larger than 0.100000
B(  0-C ,  1-O ) :   0.8810 B(  0-C , 11-H ) :   0.9684 B(  0-C , 12-H ) :   0.9726
B(  0-C , 13-H ) :   0.9725 B(  1-O ,  2-C ) :   1.2517 B(  1-O ,  4-C ) :  -0.1194
B(  2-C ,  3-O ) :   1.9125 B(  2-C ,  4-C ) :   0.9975 B(  4-C ,  5-C ) :   1.3369
B(  4-C ,  9-C ) :   1.3351 B(  5-C ,  6-C ) :   1.4798 B(  5-C , 14-H ) :   0.9682
B(  6-C ,  7-C ) :   1.3539 B(  6-C , 15-H ) :   0.9815 B(  7-C ,  8-C ) :   1.3450
B(  7-C , 10-O ) :   1.1401 B(  8-C ,  9-C ) :   1.4308 B(  8-C , 16-H ) :   0.9681
B(  9-C , 17-H ) :   0.9538 B( 10-O , 18-H ) :   0.8435

FINAL SINGLE POINT ENERGY      -535.401944229631

DIPOLE MOMENT
-------------

Method             : SCF
Type of density    : Electron Density
Multiplicity       :   1
Irrep              :   0
Energy             :  -535.4128290069307923 Eh
Relativity type    :
Basis              : AO
                                X                 Y                 Z
Electronic contribution:      4.129677875      -1.234656734       0.084099794
Nuclear contribution   :     -3.312993473       1.536882272      -0.119594714
                        -----------------------------------------
Total Dipole Moment    :      0.816684402       0.302225537      -0.035494920
                        -----------------------------------------
Magnitude (a.u.)       :      0.871535184
Magnitude (Debye)      :      2.215266388

Rotational constants in cm-1:             0.115106             0.019268             0.016558
Rotational constants in MHz :          3450.779382           577.649741           496.395179

                             ****ORCA TERMINATED NORMALLY****
TOTAL RUN TIME: 0 days 0 hours 3 minutes 44 seconds 683 msec
