                         Program Version 6.0.0  -   RELEASE  -
|  1> ! pbe def2-sv(p) def2/J RI DEFGRID1 loosescf d4 GCP(DFT/SV(P)) printgap
|  2> %output
|  3>     printlevel normal
|  4> end
|  5> * xyz 0 1
|  6> C 1.688913129 0.3956349853 0.6279780301
|  7> C 0.8958470476 0.3602796921 -0.6734326871
|  8> C -0.5674291349 -0.0598451038 -0.4840266663
|  9> H -1.0544059885 -0.0233881747 -1.4748323717
| 10> C -1.3293132662 0.8599085671 0.4695676423
| 11> O -0.570264496 -1.4036509781 -0.0262132278
| 12> H 2.7435297234 0.5500789839 0.4153537652
| 13> H 1.5747774007 -0.5499402603 1.1520488259
| 14> H 1.3479692859 1.200873727 1.2726147559
| 15> H 1.3556469129 -0.3626250421 -1.3501507873
| 16> H 0.9162442843 1.3391827906 -1.15421245
| 17> H -0.954586805 0.7411170427 1.4823805762
| 18> H -1.2060304215 1.8941242279 0.162393063
| 19> H -2.3904285015 0.6202013451 0.4606929473
| 20> H -1.4792006546 -1.6701807768 0.1637418329
| 21> *
| 22>
| 23>                          ****END OF INPUT****

CARTESIAN COORDINATES (ANGSTROEM)
---------------------------------
  C      1.688913    0.395635    0.627978
  C      0.895847    0.360280   -0.673433
  C     -0.567429   -0.059845   -0.484027
  H     -1.054406   -0.023388   -1.474832
  C     -1.329313    0.859909    0.469568
  O     -0.570264   -1.403651   -0.026213
  H      2.743530    0.550079    0.415354
  H      1.574777   -0.549940    1.152049
  H      1.347969    1.200874    1.272615
  H      1.355647   -0.362625   -1.350151
  H      0.916244    1.339183   -1.154212
  H     -0.954587    0.741117    1.482381
  H     -1.206030    1.894124    0.162393
  H     -2.390429    0.620201    0.460693
  H     -1.479201   -1.670181    0.163742

 Total Charge           Charge          ....    0
 Multiplicity           Mult            ....    1
 Number of Electrons    NEL             ....   42
 Basis Dimension        Dim             ....   90

ORBITAL ENERGIES
----------------

  NO   OCC          E(Eh)            E(eV)
   0   2.0000     -18.737697      -509.8786
   1   2.0000      -9.934607      -270.3344
   2   2.0000      -9.878691      -268.8128
   3   2.0000      -9.875659      -268.7303
   4   2.0000      -9.865417      -268.4516
   5   2.0000      -0.915026       -24.8991
   6   2.0000      -0.704116       -19.1600
   7   2.0000      -0.643252       -17.5038
   8   2.0000      -0.576124       -15.6771
   9   2.0000      -0.503466       -13.7000
  10   2.0000      -0.452078       -12.3017
  11   2.0000      -0.413748       -11.2587
  12   2.0000      -0.382943       -10.4204
  13   2.0000      -0.372475       -10.1356
  14   2.0000      -0.345273        -9.3954
  15   2.0000      -0.338791        -9.2190
  16   2.0000      -0.310527        -8.4499
  17   2.0000      -0.295965        -8.0536
  18   2.0000      -0.288495        -7.8503
  19   2.0000      -0.264341        -7.1931
  20   2.0000      -0.210166        -5.7189
  21   0.0000       0.022728         0.6185
  22   0.0000       0.064955         1.7675
  23   0.0000       0.074168         2.0182
  24   0.0000       0.087803         2.3892
  25   0.0000       0.090925         2.4742

MULLIKEN ATOMIC CHARGES
-----------------------
   0 C :   -0.296122
   1 C :   -0.157260
   2 C :    0.022020
   3 H :    0.057366
   4 C :   -0.285526
   5 O :   -0.428150
   6 H :    0.100443
   7 H :    0.115965
   8 H :    0.098423
   9 H :    0.090437
  10 H :    0.082922
  11 H :    0.112565
  12 H :    0.099007
  13 H :    0.094298
  14 H :    0.293612
Sum of atomic charges:   -0.0000000

LOEWDIN ATOMIC CHARGES
----------------------
   0 C :   -0.345464
   1 C :   -0.236207
   2 C :   -0.057610
   3 H :    0.093589
   4 C :   -0.356921
   5 O :   -0.335300
   6 H :    0.119200
   7 H :    0.123733
   8 H :    0.114279
   9 H :    0.121138
  10 H :    0.116464
  11 H :    0.122755
  12 H :    0.124482
  13 H :    0.114408
  14 H :    0.281454

  Mayer bond orders larger than 0.100000
B(  0-C ,  1-C ) :   1.1503 B(  0-C ,  6-H ) :   0.9521 B(  0-C ,  7-H ) :   0.9492
B(  0-C ,  8-H ) :   0.9512 B(  1-C ,  2-C ) :   1.0823 B(  1-C ,  9-H ) :   0.9200
B(  1-C , 10-H ) :   0.9244 B(  2-C ,  3-H ) :   0.9098 B(  2-C ,  4-C ) :   1.1038
B(  2-C ,  5-O ) :   1.0522 B(  4-C , 11-H ) :   0.9381 B(  4-C , 12-H ) :   0.9397
B(  4-C , 13-H ) :   0.9460 B(  5-O , 14-H ) :   0.8539

Dispersion correction           -0.009827266
FINAL SINGLE POINT ENERGY      -233.091890081133

DIPOLE MOMENT
-------------

Method             : SCF
Type of density    : Electron Density
Multiplicity       :   1
Irrep              :   0
Energy             :  -233.1513648707560264 Eh
Relativity type    :
Basis              : AO
                                X                 Y                 Z
Electronic contribution:     -1.311174921      -3.232359238      -1.086810322
Nuclear contribution   :      0.792255336       3.487346797       1.059772141
                        -----------------------------------------
Total Dipole Moment    :     -0.518919585       0.254987559      -0.027038181
                        -----------------------------------------
Magnitude (a.u.)       :      0.578815389
Magnitude (Debye)      :      1.471231798

Rotational constants in cm-1:             0.214636             0.131185             0.107132
Rotational constants in MHz :          6434.623374          3932.840945          3211.744511

                             ****ORCA TERMINATED NORMALLY****
TOTAL RUN TIME: 0 days 0 hours 0 minutes 5 seconds 376 msec
