                         Program Version 6.0.0  -   RELEASE  -
|  1> ! pbe def2-sv(p) def2/J RI DEFGRID1 loosescf d4 GCP(DFT/SV(P)) printgap
|  2> %output
|  3>     printlevel normal
|  4> end
|  5> * xyz 0 1
|  6> C -2.2870636329 -0.893189696 0.7866739174
|  7> C -0.8340961603 -0.4026432117 0.7337575197
|  8> H -0.526452725 -0.1246345847 1.7507899211
|  9> C -0.6524551498 0.8092090772 -0.1974469251
| 10> H -0.8530461811 0.4838172143 -1.2277512449
| 11> C 0.8049317317 1.3071905889 -0.1142471295
| 12> H 0.818329531 2.140502884 0.596705482
| 13> C 1.7534768637 0.1905188038 0.3811835179
| 14> H 2.7398714232 0.3716555606 -0.0690119528
| 15> C 1.2632091493 -1.1609536908 -0.1530065742
| 16> H 1.9158053153 -1.9609592798 0.2284956445
| 17> O -0.0316094033 -1.4917968442 0.2794780621
| 18> O 1.3244378362 -1.0843225163 -1.5467871852
| 19> O 1.8483546447 0.1007000217 1.778209815
| 20> O 1.2574542404 1.8400810682 -1.3311687172
| 21> O -1.4954811154 1.8771420447 0.1581765342
| 22> O -2.8661486744 -1.058095811 -0.4833982851
| 23> H -2.8895339173 -0.1488510841 1.3092779837
| 24> H -2.3064478795 -1.8297515596 1.3541652256
| 25> H 1.1607793676 -1.9556585643 -1.9381402143
| 26> H 2.3100004558 0.8791399362 2.1231153027
| 27> H 1.3028011019 1.1246453106 -1.9857211422
| 28> H -2.3914297802 1.6962361941 -0.159097344
| 29> H -2.4401765617 -1.8063643657 -0.9228304852
| 30> *
| 31>
| 32>                          ****END OF INPUT****

CARTESIAN COORDINATES (ANGSTROEM)
---------------------------------
  C     -2.287064   -0.893190    0.786674
  C     -0.834096   -0.402643    0.733758
  H     -0.526453   -0.124635    1.750790
  C     -0.652455    0.809209   -0.197447
  H     -0.853046    0.483817   -1.227751
  C      0.804932    1.307191   -0.114247
  H      0.818330    2.140503    0.596705
  C      1.753477    0.190519    0.381184
  H      2.739871    0.371656   -0.069012
  C      1.263209   -1.160954   -0.153007
  H      1.915805   -1.960959    0.228496
  O     -0.031609   -1.491797    0.279478
  O      1.324438   -1.084323   -1.546787
  O      1.848355    0.100700    1.778210
  O      1.257454    1.840081   -1.331169
  O     -1.495481    1.877142    0.158177
  O     -2.866149   -1.058096   -0.483398
  H     -2.889534   -0.148851    1.309278
  H     -2.306448   -1.829752    1.354165
  H      1.160779   -1.955659   -1.938140
  H      2.310000    0.879140    2.123115
  H      1.302801    1.124645   -1.985721
  H     -2.391430    1.696236   -0.159097
  H     -2.440177   -1.806364   -0.922830

 Total Charge           Charge          ....    0
 Multiplicity           Mult            ....    1
 Number of Electrons    NEL             ....   96
 Basis Dimension        Dim             ....  192

ORBITAL ENERGIES
----------------

  NO   OCC          E(Eh)            E(eV)
   0   2.0000     -18.778516      -510.9894
   1   2.0000     -18.768641      -510.7207
   2   2.0000     -18.762598      -510.5562
   3   2.0000     -18.753484      -510.3083
   4   2.0000     -18.745952      -510.1033
   5   2.0000     -18.734449      -509.7903
   6   2.0000      -9.992010      -271.8964
   7   2.0000      -9.944628      -270.6071
   8   2.0000      -9.933566      -270.3061
   9   2.0000      -9.932348      -270.2729
  10   2.0000      -9.932123      -270.2668
  11   2.0000      -9.931786      -270.2576
  12   2.0000      -0.986447       -26.8426
  13   2.0000      -0.939787       -25.5729
  14   2.0000      -0.934620       -25.4323
  15   2.0000      -0.924826       -25.1658
  16   2.0000      -0.916448       -24.9378
  17   2.0000      -0.908657       -24.7258
  18   2.0000      -0.694791       -18.9062
  19   2.0000      -0.690779       -18.7970
  20   2.0000      -0.626490       -17.0477
  21   2.0000      -0.574984       -15.6461
  22   2.0000      -0.567870       -15.4525
  23   2.0000      -0.526746       -14.3335
  24   2.0000      -0.502085       -13.6624
  25   2.0000      -0.481192       -13.0939
  26   2.0000      -0.468290       -12.7428
  27   2.0000      -0.460755       -12.5378
  28   2.0000      -0.450909       -12.2699
  29   2.0000      -0.438622       -11.9355
  30   2.0000      -0.415767       -11.3136
  31   2.0000      -0.388567       -10.5735
  32   2.0000      -0.374592       -10.1932
  33   2.0000      -0.364977        -9.9315
  34   2.0000      -0.358939        -9.7672
  35   2.0000      -0.354861        -9.6563
  36   2.0000      -0.341141        -9.2829
  37   2.0000      -0.317458        -8.6385
  38   2.0000      -0.296878        -8.0785
  39   2.0000      -0.290299        -7.8994
  40   2.0000      -0.287653        -7.8274
  41   2.0000      -0.264849        -7.2069
  42   2.0000      -0.249697        -6.7946
  43   2.0000      -0.245584        -6.6827
  44   2.0000      -0.238506        -6.4901
  45   2.0000      -0.221084        -6.0160
  46   2.0000      -0.206556        -5.6207
  47   2.0000      -0.197994        -5.3877
  48   0.0000       0.007892         0.2148
  49   0.0000       0.020545         0.5591
  50   0.0000       0.026628         0.7246
  51   0.0000       0.055342         1.5059
  52   0.0000       0.066440         1.8079

MULLIKEN ATOMIC CHARGES
-----------------------
   0 C :    0.047344
   1 C :    0.018862
   2 H :    0.065758
   3 C :    0.061700
   4 H :    0.032045
   5 C :    0.117116
   6 H :    0.056972
   7 C :   -0.014769
   8 H :    0.077130
   9 C :    0.181929
  10 H :    0.068184
  11 O :   -0.325590
  12 O :   -0.403091
  13 O :   -0.406622
  14 O :   -0.429795
  15 O :   -0.412110
  16 O :   -0.439726
  17 H :    0.086354
  18 H :    0.089073
  19 H :    0.308534
  20 H :    0.310618
  21 H :    0.301198
  22 H :    0.310319
  23 H :    0.298565
Sum of atomic charges:    0.0000000

LOEWDIN ATOMIC CHARGES
----------------------
   0 C :   -0.133104
   1 C :   -0.083193
   2 H :    0.112647
   3 C :   -0.076203
   4 H :    0.099367
   5 C :   -0.066249
   6 H :    0.118365
   7 C :   -0.092304
   8 H :    0.111207
   9 C :    0.003163
  10 H :    0.099984
  11 O :   -0.155753
  12 O :   -0.313143
  13 O :   -0.308754
  14 O :   -0.316521
  15 O :   -0.315105
  16 O :   -0.337911
  17 H :    0.114389
  18 H :    0.107060
  19 H :    0.289982
  20 H :    0.292914
  21 H :    0.274531
  22 H :    0.289964
  23 H :    0.284667

  Mayer bond orders larger than 0.100000
B(  0-C ,  1-C ) :   1.0286 B(  0-C , 16-O ) :   1.0612 B(  0-C , 17-H ) :   0.9154
B(  0-C , 18-H ) :   0.9235 B(  1-C ,  2-H ) :   0.8535 B(  1-C ,  3-C ) :   1.0465
B(  1-C , 11-O ) :   0.9670 B(  3-C ,  4-H ) :   0.8419 B(  3-C ,  5-C ) :   1.0242
B(  3-C , 15-O ) :   1.0924 B(  5-C ,  6-H ) :   0.8575 B(  5-C ,  7-C ) :   0.9825
B(  5-C , 14-O ) :   1.0475 B(  7-C ,  8-H ) :   0.8889 B(  7-C ,  9-C ) :   1.0329
B(  7-C , 13-O ) :   1.0438 B(  9-C , 10-H ) :   0.8946 B(  9-C , 11-O ) :   1.0763
B(  9-C , 12-O ) :   1.1094 B( 12-O , 19-H ) :   0.8392 B( 13-O , 20-H ) :   0.8456
B( 14-O , 21-H ) :   0.8328 B( 15-O , 22-H ) :   0.8403 B( 16-O , 23-H ) :   0.8475

Dispersion correction           -0.024988077
FINAL SINGLE POINT ENERGY      -685.694063139435

DIPOLE MOMENT
-------------

Method             : SCF
Type of density    : Electron Density
Multiplicity       :   1
Irrep              :   0
Energy             :  -685.8246309476317037 Eh
Relativity type    :
Basis              : AO
                                X                 Y                 Z
Electronic contribution:      1.439604568       0.049937795      -1.119991368
Nuclear contribution   :     -1.087259863      -1.057619284       0.977487828
                        -----------------------------------------
Total Dipole Moment    :      0.352344705      -1.007681490      -0.142503541
                        -----------------------------------------
Magnitude (a.u.)       :      1.076975410
Magnitude (Debye)      :      2.737453944

Rotational constants in cm-1:             0.040808             0.026629             0.023143
Rotational constants in MHz :          1223.384602           798.319166           693.823281

                             ****ORCA TERMINATED NORMALLY****
TOTAL RUN TIME: 0 days 0 hours 0 minutes 12 seconds 437 msec
