                         Program Version 6.0.0  -   RELEASE  -
|  1> ! pbe def2-sv(p) def2/J RI DEFGRID1 loosescf d4 GCP(DFT/SV(P)) printgap
|  2> %output
|  3>     printlevel normal
|  4> end
|  5> * xyz 0 1
|  6> C -2.6529117088 0.665649078 1.1420838653
|  7> C -1.4736916601 0.4265620807 0.2483287803
|  8> C -0.797079586 1.4062762995 -0.3331747443
|  9> C 0.40188589 1.1953898074 -1.2004462787
| 10> C 1.155539572 -0.0863682744 -0.8106368574
| 11> H 1.865754404 -0.3142461783 -1.6140487222
| 12> C 0.1693731864 -1.2583189304 -0.7573705534
| 13> C -1.1166719781 -1.031435168 0.0572029388
| 14> H -1.0299836816 -1.5033064213 1.0443161883
| 15> O -2.2069078298 -1.7369137438 -0.5311814336
| 16> C 1.9792770445 0.1463632653 0.4357817772
| 17> C 1.5475280645 -0.0156026679 1.6757018414
| 18> C 3.3788392736 0.614067543 0.157575349
| 19> H -3.4569478923 -0.0242534326 0.8913054023
| 20> H -3.0101666529 1.6877175457 1.0539735443
| 21> H -2.3736123666 0.4821471879 2.1799175865
| 22> H -1.1056993548 2.4316549415 -0.1800068515
| 23> H 0.0861741751 1.122592204 -2.2461917662
| 24> H 1.0647087461 2.0588787983 -1.1211792245
| 25> H -0.1360756386 -1.4700450981 -1.7858710415
| 26> H 0.6782589294 -2.1474738544 -0.3821646852
| 27> H -2.3861504738 -1.3569832369 -1.4025845175
| 28> H 2.1886982449 0.1870848927 2.5179808478
| 29> H 0.5549265677 -0.3470001557 1.9124922451
| 30> H 3.3683417796 1.4741571972 -0.5098256042
| 31> H 3.8893816919 0.8890803452 1.0760656781
| 32> H 3.9452935832 -0.1777506017 -0.3316239628
| 33> *
| 34>
| 35>                          ****END OF INPUT****

CARTESIAN COORDINATES (ANGSTROEM)
---------------------------------
  C     -2.652912    0.665649    1.142084
  C     -1.473692    0.426562    0.248329
  C     -0.797080    1.406276   -0.333175
  C      0.401886    1.195390   -1.200446
  C      1.155540   -0.086368   -0.810637
  H      1.865754   -0.314246   -1.614049
  C      0.169373   -1.258319   -0.757371
  C     -1.116672   -1.031435    0.057203
  H     -1.029984   -1.503306    1.044316
  O     -2.206908   -1.736914   -0.531181
  C      1.979277    0.146363    0.435782
  C      1.547528   -0.015603    1.675702
  C      3.378839    0.614068    0.157575
  H     -3.456948   -0.024253    0.891305
  H     -3.010167    1.687718    1.053974
  H     -2.373612    0.482147    2.179918
  H     -1.105699    2.431655   -0.180007
  H      0.086174    1.122592   -2.246192
  H      1.064709    2.058879   -1.121179
  H     -0.136076   -1.470045   -1.785871
  H      0.678259   -2.147474   -0.382165
  H     -2.386150   -1.356983   -1.402585
  H      2.188698    0.187085    2.517981
  H      0.554927   -0.347000    1.912492
  H      3.368342    1.474157   -0.509826
  H      3.889382    0.889080    1.076066
  H      3.945294   -0.177751   -0.331624

 Total Charge           Charge          ....    0
 Multiplicity           Mult            ....    1
 Number of Electrons    NEL             ....   84
 Basis Dimension        Dim             ....  186

ORBITAL ENERGIES
----------------

  NO   OCC          E(Eh)            E(eV)
   0   2.0000     -18.740967      -509.9676
   1   2.0000      -9.936828      -270.3948
   2   2.0000      -9.901172      -269.4246
   3   2.0000      -9.896650      -269.3015
   4   2.0000      -9.893230      -269.2085
   5   2.0000      -9.889482      -269.1065
   6   2.0000      -9.885524      -268.9988
   7   2.0000      -9.883120      -268.9334
   8   2.0000      -9.880227      -268.8546
   9   2.0000      -9.873209      -268.6637
  10   2.0000      -9.867943      -268.5204
  11   2.0000      -0.917777       -24.9740
  12   2.0000      -0.765186       -20.8218
  13   2.0000      -0.717848       -19.5336
  14   2.0000      -0.678112       -18.4524
  15   2.0000      -0.660456       -17.9719
  16   2.0000      -0.611534       -16.6407
  17   2.0000      -0.605956       -16.4889
  18   2.0000      -0.560743       -15.2586
  19   2.0000      -0.539329       -14.6759
  20   2.0000      -0.488740       -13.2993
  21   2.0000      -0.456875       -12.4322
  22   2.0000      -0.437750       -11.9118
  23   2.0000      -0.421207       -11.4616
  24   2.0000      -0.406260       -11.0549
  25   2.0000      -0.392203       -10.6724
  26   2.0000      -0.387184       -10.5358
  27   2.0000      -0.383069       -10.4239
  28   2.0000      -0.367519       -10.0007
  29   2.0000      -0.363515        -9.8917
  30   2.0000      -0.359566        -9.7843
  31   2.0000      -0.338258        -9.2045
  32   2.0000      -0.331652        -9.0247
  33   2.0000      -0.324309        -8.8249
  34   2.0000      -0.319769        -8.7014
  35   2.0000      -0.303255        -8.2520
  36   2.0000      -0.286498        -7.7960
  37   2.0000      -0.276082        -7.5126
  38   2.0000      -0.261897        -7.1266
  39   2.0000      -0.220382        -5.9969
  40   2.0000      -0.214413        -5.8345
  41   2.0000      -0.205349        -5.5878
  42   0.0000      -0.019354        -0.5266
  43   0.0000      -0.009660        -0.2629
  44   0.0000       0.027009         0.7349
  45   0.0000       0.047829         1.3015
  46   0.0000       0.052496         1.4285

MULLIKEN ATOMIC CHARGES
-----------------------
   0 C :   -0.203485
   1 C :   -0.080577
   2 C :   -0.195300
   3 C :   -0.031421
   4 C :   -0.141224
   5 H :    0.054219
   6 C :   -0.055859
   7 C :    0.067760
   8 H :    0.071227
   9 O :   -0.432730
  10 C :   -0.049765
  11 C :   -0.242028
  12 C :   -0.221732
  13 H :    0.107520
  14 H :    0.095469
  15 H :    0.103975
  16 H :    0.043260
  17 H :    0.092570
  18 H :    0.081807
  19 H :    0.058143
  20 H :    0.090830
  21 H :    0.289975
  22 H :    0.078901
  23 H :    0.103484
  24 H :    0.105896
  25 H :    0.097930
  26 H :    0.111155
Sum of atomic charges:    0.0000000

LOEWDIN ATOMIC CHARGES
----------------------
   0 C :   -0.324840
   1 C :   -0.087114
   2 C :   -0.141727
   3 C :   -0.205148
   4 C :   -0.129965
   5 H :    0.119541
   6 C :   -0.217603
   7 C :   -0.040842
   8 H :    0.114534
   9 O :   -0.322061
  10 C :   -0.050043
  11 C :   -0.266548
  12 C :   -0.321598
  13 H :    0.126995
  14 H :    0.121555
  15 H :    0.128213
  16 H :    0.116582
  17 H :    0.125003
  18 H :    0.122246
  19 H :    0.116606
  20 H :    0.126014
  21 H :    0.278342
  22 H :    0.117284
  23 H :    0.119145
  24 H :    0.123964
  25 H :    0.122705
  26 H :    0.128759

  Mayer bond orders larger than 0.100000
B(  0-C ,  1-C ) :   1.1200 B(  0-C , 13-H ) :   0.9242 B(  0-C , 14-H ) :   0.9433
B(  0-C , 15-H ) :   0.9293 B(  1-C ,  2-C ) :   1.9046 B(  1-C ,  7-C ) :   1.0200
B(  2-C ,  3-C ) :   1.0515 B(  2-C , 16-H ) :   0.9218 B(  3-C ,  4-C ) :   1.0648
B(  3-C , 17-H ) :   0.8903 B(  3-C , 18-H ) :   0.9005 B(  4-C ,  5-H ) :   0.8709
B(  4-C ,  6-C ) :   1.0698 B(  4-C , 10-C ) :   1.0107 B(  6-C ,  7-C ) :   1.0637
B(  6-C , 19-H ) :   0.8958 B(  6-C , 20-H ) :   0.9088 B(  7-C ,  8-H ) :   0.8728
B(  7-C ,  9-O ) :   0.9879 B(  9-O , 21-H ) :   0.8503 B( 10-C , 11-C ) :   2.0681
B( 10-C , 12-C ) :   1.1194 B( 11-C , 22-H ) :   0.8991 B( 11-C , 23-H ) :   0.8903
B( 12-C , 24-H ) :   0.9290 B( 12-C , 25-H ) :   0.9415 B( 12-C , 26-H ) :   0.9284

Dispersion correction           -0.029579786
FINAL SINGLE POINT ENERGY      -464.788074783922

DIPOLE MOMENT
-------------

Method             : SCF
Type of density    : Electron Density
Multiplicity       :   1
Irrep              :   0
Energy             :  -464.8769407528711781 Eh
Relativity type    :
Basis              : AO
                                X                 Y                 Z
Electronic contribution:     -3.523186083      -2.338792879      -1.483772675
Nuclear contribution   :      3.854006374       2.781476419       1.026503555
                        -----------------------------------------
Total Dipole Moment    :      0.330820292       0.442683540      -0.457269120
                        -----------------------------------------
Magnitude (a.u.)       :      0.717290617
Magnitude (Debye)      :      1.823207857

Rotational constants in cm-1:             0.061391             0.025602             0.024073
Rotational constants in MHz :          1840.466682           767.539168           721.687684

                             ****ORCA TERMINATED NORMALLY****
TOTAL RUN TIME: 0 days 0 hours 0 minutes 12 seconds 549 msec
