                         Program Version 6.0.0  -   RELEASE  -
|  1> ! pbe def2-sv(p) def2/J RI DEFGRID1 loosescf d4 GCP(DFT/SV(P)) printgap
|  2> %output
|  3>     printlevel normal
|  4> end
|  5> * xyz 0 1
|  6> C -1.6571984134 -1.3298389897 -0.6351368812
|  7> C -1.1460229603 -0.504079157 0.5537337502
|  8> H -1.9189006211 -0.507285173 1.3300525225
|  9> C -0.8806871236 0.9697504767 0.1570170388
| 10> H -1.2229440277 1.1384848035 -0.8711887146
| 11> C 0.6186177052 1.280902595 0.2046807151
| 12> H 0.889603973 1.451781806 1.260000492
| 13> C 1.4384809848 0.1077209558 -0.3515211238
| 14> H 1.15247926 -0.0701988885 -1.3936182477
| 15> C 1.1661654229 -1.1709857459 0.4591999147
| 16> H 1.9404813434 -1.2823582909 1.2345062069
| 17> O -0.0315744575 -1.1059763208 1.1954800632
| 18> O 1.1905282064 -2.2536816118 -0.4172433449
| 19> O 2.8019884084 0.4365400508 -0.3993455823
| 20> O 0.8596146706 2.441736084 -0.5491965853
| 21> O -1.5231021448 1.8622890377 1.0364068697
| 22> O -2.8615131073 -0.743734909 -1.0722844346
| 23> H -1.8199827607 -2.359322604 -0.294421975
| 24> H -0.9079431305 -1.3352310694 -1.4356456062
| 25> H 1.1852024914 -3.0891617127 0.0749707957
| 26> H 3.1545123182 0.5333949896 0.498618882
| 27> H 1.8054686933 2.4687423201 -0.7702042172
| 28> H -2.4642767254 1.907207919 0.8179586989
| 29> H -3.2244022217 -1.2659209332 -1.8015042363
| 30> *
| 31>
| 32>                          ****END OF INPUT****

CARTESIAN COORDINATES (ANGSTROEM)
---------------------------------
  C     -1.657198   -1.329839   -0.635137
  C     -1.146023   -0.504079    0.553734
  H     -1.918901   -0.507285    1.330053
  C     -0.880687    0.969750    0.157017
  H     -1.222944    1.138485   -0.871189
  C      0.618618    1.280903    0.204681
  H      0.889604    1.451782    1.260000
  C      1.438481    0.107721   -0.351521
  H      1.152479   -0.070199   -1.393618
  C      1.166165   -1.170986    0.459200
  H      1.940481   -1.282358    1.234506
  O     -0.031574   -1.105976    1.195480
  O      1.190528   -2.253682   -0.417243
  O      2.801988    0.436540   -0.399346
  O      0.859615    2.441736   -0.549197
  O     -1.523102    1.862289    1.036407
  O     -2.861513   -0.743735   -1.072284
  H     -1.819983   -2.359323   -0.294422
  H     -0.907943   -1.335231   -1.435646
  H      1.185202   -3.089162    0.074971
  H      3.154512    0.533395    0.498619
  H      1.805469    2.468742   -0.770204
  H     -2.464277    1.907208    0.817959
  H     -3.224402   -1.265921   -1.801504

 Total Charge           Charge          ....    0
 Multiplicity           Mult            ....    1
 Number of Electrons    NEL             ....   96
 Basis Dimension        Dim             ....  192

ORBITAL ENERGIES
----------------

  NO   OCC          E(Eh)            E(eV)
   0   2.0000     -18.768382      -510.7136
   1   2.0000     -18.766358      -510.6586
   2   2.0000     -18.766212      -510.6546
   3   2.0000     -18.756341      -510.3860
   4   2.0000     -18.738038      -509.8879
   5   2.0000     -18.736636      -509.8498
   6   2.0000      -9.990751      -271.8622
   7   2.0000      -9.944275      -270.5975
   8   2.0000      -9.938243      -270.4333
   9   2.0000      -9.934737      -270.3379
  10   2.0000      -9.932395      -270.2742
  11   2.0000      -9.931336      -270.2454
  12   2.0000      -0.981781       -26.7156
  13   2.0000      -0.946812       -25.7641
  14   2.0000      -0.931955       -25.3598
  15   2.0000      -0.923651       -25.1338
  16   2.0000      -0.912670       -24.8350
  17   2.0000      -0.904761       -24.6198
  18   2.0000      -0.698658       -19.0115
  19   2.0000      -0.690462       -18.7884
  20   2.0000      -0.624205       -16.9855
  21   2.0000      -0.582905       -15.8617
  22   2.0000      -0.559942       -15.2368
  23   2.0000      -0.516749       -14.0615
  24   2.0000      -0.506477       -13.7819
  25   2.0000      -0.490152       -13.3377
  26   2.0000      -0.476960       -12.9787
  27   2.0000      -0.459178       -12.4949
  28   2.0000      -0.441933       -12.0256
  29   2.0000      -0.420317       -11.4374
  30   2.0000      -0.411106       -11.1868
  31   2.0000      -0.395645       -10.7660
  32   2.0000      -0.387966       -10.5571
  33   2.0000      -0.382132       -10.3983
  34   2.0000      -0.361823        -9.8457
  35   2.0000      -0.336688        -9.1617
  36   2.0000      -0.331005        -9.0071
  37   2.0000      -0.311094        -8.4653
  38   2.0000      -0.299901        -8.1607
  39   2.0000      -0.283580        -7.7166
  40   2.0000      -0.277629        -7.5547
  41   2.0000      -0.266997        -7.2653
  42   2.0000      -0.254320        -6.9204
  43   2.0000      -0.239615        -6.5203
  44   2.0000      -0.236020        -6.4224
  45   2.0000      -0.222152        -6.0451
  46   2.0000      -0.212682        -5.7874
  47   2.0000      -0.195154        -5.3104
  48   0.0000       0.016055         0.4369
  49   0.0000       0.018521         0.5040
  50   0.0000       0.022124         0.6020
  51   0.0000       0.048547         1.3210
  52   0.0000       0.056411         1.5350

MULLIKEN ATOMIC CHARGES
-----------------------
   0 C :    0.000980
   1 C :    0.041475
   2 H :    0.065449
   3 C :    0.063332
   4 H :    0.073754
   5 C :    0.074461
   6 H :    0.047068
   7 C :   -0.017787
   8 H :    0.083714
   9 C :    0.219125
  10 H :    0.044373
  11 O :   -0.306331
  12 O :   -0.385915
  13 O :   -0.414252
  14 O :   -0.409886
  15 O :   -0.410425
  16 O :   -0.439720
  17 H :    0.068454
  18 H :    0.094876
  19 H :    0.301997
  20 H :    0.300085
  21 H :    0.294604
  22 H :    0.303385
  23 H :    0.307185
Sum of atomic charges:   -0.0000000

LOEWDIN ATOMIC CHARGES
----------------------
   0 C :   -0.145095
   1 C :   -0.064001
   2 H :    0.119225
   3 C :   -0.064171
   4 H :    0.112327
   5 C :   -0.069744
   6 H :    0.102042
   7 C :   -0.092296
   8 H :    0.123900
   9 C :   -0.007870
  10 H :    0.093892
  11 O :   -0.143123
  12 O :   -0.302931
  13 O :   -0.302926
  14 O :   -0.319182
  15 O :   -0.317412
  16 O :   -0.345014
  17 H :    0.097089
  18 H :    0.100033
  19 H :    0.286033
  20 H :    0.283960
  21 H :    0.276375
  22 H :    0.288282
  23 H :    0.290608

  Mayer bond orders larger than 0.100000
B(  0-C ,  1-C ) :   1.0406 B(  0-C , 16-O ) :   1.0622 B(  0-C , 17-H ) :   0.9088
B(  0-C , 18-H ) :   0.9056 B(  1-C ,  2-H ) :   0.8866 B(  1-C ,  3-C ) :   0.9792
B(  1-C , 11-O ) :   1.0311 B(  3-C ,  4-H ) :   0.8849 B(  3-C ,  5-C ) :   1.0167
B(  3-C , 15-O ) :   1.0955 B(  5-C ,  6-H ) :   0.8572 B(  5-C ,  7-C ) :   1.0105
B(  5-C , 14-O ) :   1.1016 B(  7-C ,  8-H ) :   0.8672 B(  7-C ,  9-C ) :   0.9665
B(  7-C , 13-O ) :   1.0188 B(  9-C , 10-H ) :   0.8874 B(  9-C , 11-O ) :   1.0682
B(  9-C , 12-O ) :   1.1341 B( 12-O , 19-H ) :   0.8401 B( 13-O , 20-H ) :   0.8442
B( 14-O , 21-H ) :   0.8285 B( 15-O , 22-H ) :   0.8487 B( 16-O , 23-H ) :   0.8493

Dispersion correction           -0.024478724
FINAL SINGLE POINT ENERGY      -685.687467659064

DIPOLE MOMENT
-------------

Method             : SCF
Type of density    : Electron Density
Multiplicity       :   1
Irrep              :   0
Energy             :  -685.8168265611167271 Eh
Relativity type    :
Basis              : AO
                                X                 Y                 Z
Electronic contribution:      1.341081571       1.056463582       1.233190874
Nuclear contribution   :     -1.335783056      -2.251425668      -1.270030161
                        -----------------------------------------
Total Dipole Moment    :      0.005298515      -1.194962086      -0.036839287
                        -----------------------------------------
Magnitude (a.u.)       :      1.195541549
Magnitude (Debye)      :      3.038825117

Rotational constants in cm-1:             0.036543             0.029141             0.019832
Rotational constants in MHz :          1095.529991           873.610487           594.542896

                             ****ORCA TERMINATED NORMALLY****
TOTAL RUN TIME: 0 days 0 hours 0 minutes 12 seconds 26 msec
