                         Program Version 6.0.0  -   RELEASE  -
|  1> ! pbe def2-sv(p) def2/J RI DEFGRID1 loosescf d4 GCP(DFT/SV(P)) printgap
|  2> %output
|  3>     printlevel normal
|  4> end
|  5> * xyz 0 1
|  6> C -2.1479134673 -0.9256401425 -0.2578365562
|  7> C -1.1646121403 -0.3540263248 0.7759317588
|  8> H -1.70134845 -0.3761839072 1.733100557
|  9> C -0.7569805618 1.1175290755 0.5491710212
| 10> H -1.6203026446 1.6686963728 0.1604122277
| 11> C 0.4249598958 1.2966378136 -0.4249433091
| 12> H 0.8187910729 2.3085985411 -0.2537672481
| 13> C 1.5539058933 0.2977569633 -0.0805302858
| 14> H 2.2475834893 0.2483866864 -0.9303225657
| 15> C 1.0518330094 -1.1434247787 0.1599613871
| 16> H 1.8446554744 -1.6748096716 0.7038161076
| 17> O -0.0477889379 -1.2052301478 1.0282783279
| 18> O 0.8634110631 -1.8468962116 -1.0231169409
| 19> O 2.2114977626 0.6920119505 1.1055976455
| 20> O 0.0647898492 1.2692942237 -1.777347702
| 21> O -0.451314488 1.7207608455 1.78598848
| 22> O -1.6401150087 -0.868760064 -1.5815403504
| 23> H -3.0735066958 -0.3463624958 -0.1869887391
| 24> H -2.3431912345 -1.9664191265 0.0214958593
| 25> H 0.0247642245 -1.5621855745 -1.4445101489
| 26> H 2.7978166496 1.4400437449 0.9224334806
| 27> H -0.5444224897 0.5233735032 -1.937710287
| 28> H 0.3518520671 1.3040051477 2.1403748586
| 29> H -2.3049915175 -1.2181019147 -2.1933565576
| 30> *
| 31>
| 32>                          ****END OF INPUT****

CARTESIAN COORDINATES (ANGSTROEM)
---------------------------------
  C     -2.147913   -0.925640   -0.257837
  C     -1.164612   -0.354026    0.775932
  H     -1.701348   -0.376184    1.733101
  C     -0.756981    1.117529    0.549171
  H     -1.620303    1.668696    0.160412
  C      0.424960    1.296638   -0.424943
  H      0.818791    2.308599   -0.253767
  C      1.553906    0.297757   -0.080530
  H      2.247583    0.248387   -0.930323
  C      1.051833   -1.143425    0.159961
  H      1.844655   -1.674810    0.703816
  O     -0.047789   -1.205230    1.028278
  O      0.863411   -1.846896   -1.023117
  O      2.211498    0.692012    1.105598
  O      0.064790    1.269294   -1.777348
  O     -0.451314    1.720761    1.785988
  O     -1.640115   -0.868760   -1.581540
  H     -3.073507   -0.346362   -0.186989
  H     -2.343191   -1.966419    0.021496
  H      0.024764   -1.562186   -1.444510
  H      2.797817    1.440044    0.922433
  H     -0.544422    0.523374   -1.937710
  H      0.351852    1.304005    2.140375
  H     -2.304992   -1.218102   -2.193357

 Total Charge           Charge          ....    0
 Multiplicity           Mult            ....    1
 Number of Electrons    NEL             ....   96
 Basis Dimension        Dim             ....  192

ORBITAL ENERGIES
----------------

  NO   OCC          E(Eh)            E(eV)
   0   2.0000     -18.813438      -511.9397
   1   2.0000     -18.766409      -510.6599
   2   2.0000     -18.761442      -510.5248
   3   2.0000     -18.740761      -509.9620
   4   2.0000     -18.735549      -509.8202
   5   2.0000     -18.733727      -509.7706
   6   2.0000      -9.972920      -271.3770
   7   2.0000      -9.963635      -271.1243
   8   2.0000      -9.952167      -270.8122
   9   2.0000      -9.938990      -270.4537
  10   2.0000      -9.930961      -270.2352
  11   2.0000      -9.930429      -270.2207
  12   2.0000      -0.987414       -26.8689
  13   2.0000      -0.966938       -26.3117
  14   2.0000      -0.935393       -25.4533
  15   2.0000      -0.920908       -25.0592
  16   2.0000      -0.911965       -24.8158
  17   2.0000      -0.894800       -24.3488
  18   2.0000      -0.711858       -19.3707
  19   2.0000      -0.678459       -18.4618
  20   2.0000      -0.631946       -17.1961
  21   2.0000      -0.584970       -15.9179
  22   2.0000      -0.578318       -15.7368
  23   2.0000      -0.536360       -14.5951
  24   2.0000      -0.502804       -13.6820
  25   2.0000      -0.485270       -13.2049
  26   2.0000      -0.470058       -12.7909
  27   2.0000      -0.462152       -12.5758
  28   2.0000      -0.446007       -12.1365
  29   2.0000      -0.441261       -12.0073
  30   2.0000      -0.422338       -11.4924
  31   2.0000      -0.411783       -11.2052
  32   2.0000      -0.401593       -10.9279
  33   2.0000      -0.369957       -10.0670
  34   2.0000      -0.361493        -9.8367
  35   2.0000      -0.348964        -9.4958
  36   2.0000      -0.336830        -9.1656
  37   2.0000      -0.319444        -8.6925
  38   2.0000      -0.298042        -8.1101
  39   2.0000      -0.296848        -8.0776
  40   2.0000      -0.279861        -7.6154
  41   2.0000      -0.272403        -7.4125
  42   2.0000      -0.263740        -7.1767
  43   2.0000      -0.246454        -6.7063
  44   2.0000      -0.243979        -6.6390
  45   2.0000      -0.220593        -6.0026
  46   2.0000      -0.206436        -5.6174
  47   2.0000      -0.189001        -5.1430
  48   0.0000      -0.015161        -0.4125
  49   0.0000       0.017842         0.4855
  50   0.0000       0.044904         1.2219
  51   0.0000       0.053589         1.4582
  52   0.0000       0.066935         1.8214

MULLIKEN ATOMIC CHARGES
-----------------------
   0 C :    0.020038
   1 C :    0.017835
   2 H :    0.090378
   3 C :    0.055413
   4 H :    0.069149
   5 C :    0.056622
   6 H :    0.059892
   7 C :   -0.004647
   8 H :    0.081874
   9 C :    0.208323
  10 H :    0.070199
  11 O :   -0.308683
  12 O :   -0.414536
  13 O :   -0.419774
  14 O :   -0.424415
  15 O :   -0.433488
  16 O :   -0.450706
  17 H :    0.097119
  18 H :    0.106130
  19 H :    0.286414
  20 H :    0.309967
  21 H :    0.288995
  22 H :    0.300372
  23 H :    0.337529
Sum of atomic charges:   -0.0000000

LOEWDIN ATOMIC CHARGES
----------------------
   0 C :   -0.136708
   1 C :   -0.072613
   2 H :    0.132857
   3 C :   -0.068760
   4 H :    0.115746
   5 C :   -0.082094
   6 H :    0.110083
   7 C :   -0.099192
   8 H :    0.112919
   9 C :   -0.001810
  10 H :    0.111659
  11 O :   -0.143445
  12 O :   -0.326172
  13 O :   -0.313646
  14 O :   -0.330654
  15 O :   -0.323091
  16 O :   -0.311193
  17 H :    0.116496
  18 H :    0.117595
  19 H :    0.258720
  20 H :    0.291878
  21 H :    0.259246
  22 H :    0.273981
  23 H :    0.308197

  Mayer bond orders larger than 0.100000
B(  0-C ,  1-C ) :   1.0651 B(  0-C , 16-O ) :   0.9742 B(  0-C , 17-H ) :   0.9129
B(  0-C , 18-H ) :   0.9116 B(  1-C ,  2-H ) :   0.8821 B(  1-C ,  3-C ) :   0.9821
B(  1-C , 11-O ) :   1.0233 B(  3-C ,  4-H ) :   0.8943 B(  3-C ,  5-C ) :   0.9837
B(  3-C , 15-O ) :   1.0463 B(  5-C ,  6-H ) :   0.8954 B(  5-C ,  7-C ) :   0.9442
B(  5-C , 14-O ) :   1.0877 B(  7-C ,  8-H ) :   0.8957 B(  7-C ,  9-C ) :   0.9731
B(  7-C , 13-O ) :   1.0202 B(  9-C , 10-H ) :   0.8976 B(  9-C , 11-O ) :   1.0377
B(  9-C , 12-O ) :   1.1414 B( 12-O , 19-H ) :   0.7892 B( 13-O , 20-H ) :   0.8427
B( 14-O , 21-H ) :   0.7974 B( 15-O , 22-H ) :   0.8194 B( 16-O , 19-H ) :   0.1182
B( 16-O , 21-H ) :   0.1163 B( 16-O , 23-H ) :   0.8276

Dispersion correction           -0.026453138
FINAL SINGLE POINT ENERGY      -685.699083696172

DIPOLE MOMENT
-------------

Method             : SCF
Type of density    : Electron Density
Multiplicity       :   1
Irrep              :   0
Energy             :  -685.8341551078555085 Eh
Relativity type    :
Basis              : AO
                                X                 Y                 Z
Electronic contribution:      2.187628854      -0.519117045       0.653337610
Nuclear contribution   :     -3.270931649       0.323922135      -1.193652643
                        -----------------------------------------
Total Dipole Moment    :     -1.083302795      -0.195194910      -0.540315033
                        -----------------------------------------
Magnitude (a.u.)       :      1.226208112
Magnitude (Debye)      :      3.116773327

Rotational constants in cm-1:             0.039479             0.031048             0.027581
Rotational constants in MHz :          1183.541275           930.791263           826.847305

                             ****ORCA TERMINATED NORMALLY****
TOTAL RUN TIME: 0 days 0 hours 0 minutes 11 seconds 362 msec
