                         Program Version 6.0.0  -   RELEASE  -
|  1> ! pbe def2-sv(p) def2/J RI DEFGRID1 loosescf d4 GCP(DFT/SV(P)) printgap
|  2> %output
|  3>     printlevel normal
|  4> end
|  5> * xyz 0 1
|  6> C 0.0002189625 0.0004739288 0.5226544332
|  7> Br 0.3852240127 -1.8225247471 -0.0329712852
|  8> Br 1.3864403176 1.2446958042 -0.032995888
|  9> Br -1.7716975477 0.5777601073 -0.0329799331
| 10> H 2.40961e-05 -0.0001905161 1.6159268241
| 11> *
| 12>
| 13>                          ****END OF INPUT****

CARTESIAN COORDINATES (ANGSTROEM)
---------------------------------
  C      0.000219    0.000474    0.522654
  Br     0.385224   -1.822525   -0.032971
  Br     1.386440    1.244696   -0.032996
  Br    -1.771698    0.577760   -0.032980
  H      0.000024   -0.000191    1.615927

 Total Charge           Charge          ....    0
 Multiplicity           Mult            ....    1
 Number of Electrons    NEL             ....  112
 Basis Dimension        Dim             ....  112

ORBITAL ENERGIES
----------------

  NO   OCC          E(Eh)            E(eV)
   0   2.0000    -480.955224    -13087.4570
   1   2.0000    -480.955150    -13087.4550
   2   2.0000    -480.955133    -13087.4545
   3   2.0000     -61.797876     -1681.6057
   4   2.0000     -61.797799     -1681.6036
   5   2.0000     -61.797783     -1681.6032
   6   2.0000     -55.728650     -1516.4537
   7   2.0000     -55.728574     -1516.4516
   8   2.0000     -55.728556     -1516.4511
   9   2.0000     -55.725260     -1516.3614
  10   2.0000     -55.725243     -1516.3610
  11   2.0000     -55.725181     -1516.3593
  12   2.0000     -55.725168     -1516.3589
  13   2.0000     -55.725163     -1516.3588
  14   2.0000     -55.725156     -1516.3586
  15   2.0000     -10.046388      -273.3761
  16   2.0000      -8.423298      -229.2096
  17   2.0000      -8.423216      -229.2074
  18   2.0000      -8.423201      -229.2070
  19   2.0000      -6.306304      -171.6033
  20   2.0000      -6.306221      -171.6010
  21   2.0000      -6.306206      -171.6006
  22   2.0000      -6.290447      -171.1718
  23   2.0000      -6.290363      -171.1695
  24   2.0000      -6.290353      -171.1692
  25   2.0000      -6.290185      -171.1646
  26   2.0000      -6.290103      -171.1624
  27   2.0000      -6.290097      -171.1623
  28   2.0000      -2.507177       -68.2238
  29   2.0000      -2.507104       -68.2218
  30   2.0000      -2.507050       -68.2203
  31   2.0000      -2.503303       -68.1183
  32   2.0000      -2.503236       -68.1165
  33   2.0000      -2.503192       -68.1153
  34   2.0000      -2.503074       -68.1121
  35   2.0000      -2.503003       -68.1102
  36   2.0000      -2.502984       -68.1096
  37   2.0000      -2.491223       -67.7896
  38   2.0000      -2.491214       -67.7894
  39   2.0000      -2.491137       -67.7873
  40   2.0000      -2.491135       -67.7872
  41   2.0000      -2.491126       -67.7870
  42   2.0000      -2.491125       -67.7870
  43   2.0000      -0.806733       -21.9523
  44   2.0000      -0.720958       -19.6183
  45   2.0000      -0.720854       -19.6154
  46   2.0000      -0.578926       -15.7534
  47   2.0000      -0.435429       -11.8486
  48   2.0000      -0.404379       -11.0037
  49   2.0000      -0.404315       -11.0020
  50   2.0000      -0.284391        -7.7387
  51   2.0000      -0.284350        -7.7376
  52   2.0000      -0.262630        -7.1465
  53   2.0000      -0.261768        -7.1231
  54   2.0000      -0.261715        -7.1216
  55   2.0000      -0.245267        -6.6740
  56   0.0000      -0.098232        -2.6730
  57   0.0000      -0.044704        -1.2165
  58   0.0000      -0.044553        -1.2123
  59   0.0000       0.042054         1.1443
  60   0.0000       0.227317         6.1856

MULLIKEN ATOMIC CHARGES
-----------------------
   0 C :   -0.272642
   1 Br:    0.018187
   2 Br:    0.018615
   3 Br:    0.018161
   4 H :    0.217678
Sum of atomic charges:   -0.0000000

LOEWDIN ATOMIC CHARGES
----------------------
   0 C :   -0.379147
   1 Br:    0.078519
   2 Br:    0.078971
   3 Br:    0.078406
   4 H :    0.143252

  Mayer bond orders larger than 0.100000
B(  0-C ,  1-Br) :   1.0135 B(  0-C ,  2-Br) :   1.0138 B(  0-C ,  3-Br) :   1.0132
B(  0-C ,  4-H ) :   0.8911

Dispersion correction           -0.006894150
FINAL SINGLE POINT ENERGY     -7758.967065168627

DIPOLE MOMENT
-------------

Method             : SCF
Type of density    : Electron Density
Multiplicity       :   1
Irrep              :   0
Energy             : -7758.9858503507011847 Eh
Relativity type    :
Basis              : AO
                                X                 Y                 Z
Electronic contribution:      0.000683637       0.000196916      -2.094189905
Nuclear contribution   :      0.000331049       0.000460439       2.434810832
                        -----------------------------------------
Total Dipole Moment    :      0.001014686       0.000657355       0.340620927
                        -----------------------------------------
Magnitude (a.u.)       :      0.340623073
Magnitude (Debye)      :      0.865795045

Rotational constants in cm-1:             0.039944             0.039908             0.020259
Rotational constants in MHz :          1197.504851          1196.405010           607.358369

                             ****ORCA TERMINATED NORMALLY****
TOTAL RUN TIME: 0 days 0 hours 0 minutes 7 seconds 455 msec
