                         Program Version 6.0.0  -   RELEASE  -
|  1> ! pbe def2-sv(p) def2/J RI DEFGRID1 loosescf d4 GCP(DFT/SV(P)) printgap
|  2> %output
|  3>     printlevel normal
|  4> end
|  5> * xyz 0 1
|  6> C -2.5299533442 -0.9356016232 0.3414420706
|  7> C -1.0994338133 -0.4718199049 0.6253464463
|  8> H -0.9654264985 -0.3813585694 1.7153323669
|  9> C -0.8321690384 0.8990835287 -0.0086152645
| 10> H -1.0682215977 0.8258175155 -1.0818488819
| 11> C 0.643601517 1.2765302489 0.1688937638
| 12> H 0.8315100095 1.4702557134 1.2321487397
| 13> C 1.5760775111 0.147714208 -0.2910463374
| 14> H 1.5129469867 0.0268330148 -1.3843085913
| 15> C 1.1455913019 -1.186530776 0.3356027401
| 16> H 1.3409384435 -1.1308812263 1.4282602733
| 17> O -0.219578466 -1.4512121272 0.1152055022
| 18> O 1.8674687891 -2.2018659476 -0.2533975277
| 19> O 2.8991716388 0.3998325368 0.1037234235
| 20> O 0.9473161163 2.486737786 -0.485198199
| 21> O -1.6696296637 1.8367836063 0.6207406574
| 22> O -2.7618860058 -0.9119561805 -1.0468815292
| 23> H -3.2080742607 -0.250117817 0.8631960234
| 24> H -2.639866914 -1.9505935472 0.7388381817
| 25> H 1.4857397619 -3.0575968871 -3.82474e-05
| 26> H 3.1338386656 1.3040253438 -0.161712884
| 27> H 0.7998275568 2.3888580607 -1.4384239918
| 28> H -1.384114204 2.7277255884 0.3637629959
| 29> H -3.646689265 -1.2611417088 -1.223527849
| 30> *
| 31>
| 32>                          ****END OF INPUT****

CARTESIAN COORDINATES (ANGSTROEM)
---------------------------------
  C     -2.529953   -0.935602    0.341442
  C     -1.099434   -0.471820    0.625346
  H     -0.965426   -0.381359    1.715332
  C     -0.832169    0.899084   -0.008615
  H     -1.068222    0.825818   -1.081849
  C      0.643602    1.276530    0.168894
  H      0.831510    1.470256    1.232149
  C      1.576078    0.147714   -0.291046
  H      1.512947    0.026833   -1.384309
  C      1.145591   -1.186531    0.335603
  H      1.340938   -1.130881    1.428260
  O     -0.219578   -1.451212    0.115206
  O      1.867469   -2.201866   -0.253398
  O      2.899172    0.399833    0.103723
  O      0.947316    2.486738   -0.485198
  O     -1.669630    1.836784    0.620741
  O     -2.761886   -0.911956   -1.046882
  H     -3.208074   -0.250118    0.863196
  H     -2.639867   -1.950594    0.738838
  H      1.485740   -3.057597   -0.000038
  H      3.133839    1.304025   -0.161713
  H      0.799828    2.388858   -1.438424
  H     -1.384114    2.727726    0.363763
  H     -3.646689   -1.261142   -1.223528

 Total Charge           Charge          ....    0
 Multiplicity           Mult            ....    1
 Number of Electrons    NEL             ....   96
 Basis Dimension        Dim             ....  192

ORBITAL ENERGIES
----------------

  NO   OCC          E(Eh)            E(eV)
   0   2.0000     -18.770301      -510.7658
   1   2.0000     -18.766930      -510.6741
   2   2.0000     -18.751790      -510.2622
   3   2.0000     -18.751500      -510.2543
   4   2.0000     -18.750284      -510.2212
   5   2.0000     -18.744992      -510.0772
   6   2.0000      -9.983132      -271.6548
   7   2.0000      -9.946006      -270.6446
   8   2.0000      -9.942683      -270.5542
   9   2.0000      -9.938918      -270.4517
  10   2.0000      -9.937694      -270.4184
  11   2.0000      -9.932423      -270.2750
  12   2.0000      -0.980222       -26.6732
  13   2.0000      -0.953467       -25.9452
  14   2.0000      -0.931931       -25.3591
  15   2.0000      -0.922530       -25.1033
  16   2.0000      -0.916718       -24.9452
  17   2.0000      -0.907461       -24.6933
  18   2.0000      -0.702341       -19.1117
  19   2.0000      -0.691578       -18.8188
  20   2.0000      -0.619343       -16.8532
  21   2.0000      -0.582589       -15.8530
  22   2.0000      -0.554553       -15.0902
  23   2.0000      -0.527995       -14.3675
  24   2.0000      -0.498883       -13.5753
  25   2.0000      -0.484989       -13.1972
  26   2.0000      -0.476384       -12.9631
  27   2.0000      -0.464619       -12.6429
  28   2.0000      -0.439444       -11.9579
  29   2.0000      -0.432698       -11.7743
  30   2.0000      -0.415591       -11.3088
  31   2.0000      -0.412579       -11.2269
  32   2.0000      -0.385225       -10.4825
  33   2.0000      -0.371661       -10.1134
  34   2.0000      -0.360934        -9.8215
  35   2.0000      -0.354741        -9.6530
  36   2.0000      -0.314483        -8.5575
  37   2.0000      -0.308394        -8.3918
  38   2.0000      -0.297727        -8.1016
  39   2.0000      -0.294226        -8.0063
  40   2.0000      -0.286106        -7.7853
  41   2.0000      -0.270580        -7.3629
  42   2.0000      -0.251679        -6.8485
  43   2.0000      -0.238213        -6.4821
  44   2.0000      -0.231041        -6.2870
  45   2.0000      -0.220017        -5.9870
  46   2.0000      -0.211203        -5.7471
  47   2.0000      -0.203420        -5.5353
  48   0.0000       0.007905         0.2151
  49   0.0000       0.025604         0.6967
  50   0.0000       0.040192         1.0937
  51   0.0000       0.046773         1.2728
  52   0.0000       0.058140         1.5821

MULLIKEN ATOMIC CHARGES
-----------------------
   0 C :    0.079098
   1 C :    0.013009
   2 H :    0.057211
   3 C :    0.053439
   4 H :    0.058688
   5 C :    0.033889
   6 H :    0.065722
   7 C :    0.050618
   8 H :    0.047720
   9 C :    0.203518
  10 H :    0.035155
  11 O :   -0.310776
  12 O :   -0.370538
  13 O :   -0.407347
  14 O :   -0.422741
  15 O :   -0.419429
  16 O :   -0.435730
  17 H :    0.082470
  18 H :    0.075491
  19 H :    0.304130
  20 H :    0.300445
  21 H :    0.300006
  22 H :    0.302929
  23 H :    0.303022
Sum of atomic charges:   -0.0000000

LOEWDIN ATOMIC CHARGES
----------------------
   0 C :   -0.122691
   1 C :   -0.056969
   2 H :    0.107075
   3 C :   -0.079730
   4 H :    0.104124
   5 C :   -0.092792
   6 H :    0.118310
   7 C :   -0.086742
   8 H :    0.102419
   9 C :    0.010195
  10 H :    0.080668
  11 O :   -0.147251
  12 O :   -0.289138
  13 O :   -0.314535
  14 O :   -0.313948
  15 O :   -0.320290
  16 O :   -0.337824
  17 H :    0.107190
  18 H :    0.101527
  19 H :    0.288910
  20 H :    0.282796
  21 H :    0.285146
  22 H :    0.284392
  23 H :    0.289158

  Mayer bond orders larger than 0.100000
B(  0-C ,  1-C ) :   1.0628 B(  0-C , 16-O ) :   1.0877 B(  0-C , 17-H ) :   0.9061
B(  0-C , 18-H ) :   0.9129 B(  1-C ,  2-H ) :   0.8766 B(  1-C ,  3-C ) :   1.0153
B(  1-C , 11-O ) :   0.9949 B(  3-C ,  4-H ) :   0.8599 B(  3-C ,  5-C ) :   1.0185
B(  3-C , 15-O ) :   1.0574 B(  5-C ,  6-H ) :   0.8613 B(  5-C ,  7-C ) :   1.0106
B(  5-C , 14-O ) :   1.0182 B(  7-C ,  8-H ) :   0.8611 B(  7-C ,  9-C ) :   0.9852
B(  7-C , 13-O ) :   1.0808 B(  9-C , 10-H ) :   0.8836 B(  9-C , 11-O ) :   1.0133
B(  9-C , 12-O ) :   1.1931 B( 12-O , 19-H ) :   0.8406 B( 13-O , 20-H ) :   0.8371
B( 14-O , 21-H ) :   0.8458 B( 15-O , 22-H ) :   0.8348 B( 16-O , 23-H ) :   0.8499

Dispersion correction           -0.023816697
FINAL SINGLE POINT ENERGY      -685.695604394156

DIPOLE MOMENT
-------------

Method             : SCF
Type of density    : Electron Density
Multiplicity       :   1
Irrep              :   0
Energy             :  -685.8246111830613927 Eh
Relativity type    :
Basis              : AO
                                X                 Y                 Z
Electronic contribution:      2.668017471      -0.509503307      -1.155379087
Nuclear contribution   :     -3.556422628       0.670158821       0.972641341
                        -----------------------------------------
Total Dipole Moment    :     -0.888405157       0.160655514      -0.182737746
                        -----------------------------------------
Magnitude (a.u.)       :      0.921122685
Magnitude (Debye)      :      2.341307798

Rotational constants in cm-1:             0.039668             0.026830             0.017768
Rotational constants in MHz :          1189.231203           804.338008           532.675824

                             ****ORCA TERMINATED NORMALLY****
TOTAL RUN TIME: 0 days 0 hours 0 minutes 11 seconds 809 msec
