                         Program Version 6.0.0  -   RELEASE  -
|  1> ! r2scan-3c def2/J RI DEFGRID2 scfconv6 printgap
|  2> %output
|  3>     printlevel normal
|  4> end
|  5> * xyz 0 1
|  6> C 1.7413074482 -0.3152947353 -0.2212847837
|  7> C 0.5662923905 0.585317707 0.1604153165
|  8> C -0.6781825334 -0.2139778696 0.3821590611
|  9> C -1.8070690661 -0.0476119224 -0.2808176417
| 10> H 1.9300417816 -1.0469825333 0.5609926174
| 11> H 2.6414198459 0.2768116275 -0.3657591502
| 12> H 1.5240567166 -0.8476600137 -1.1445150044
| 13> H 0.3960775833 1.3242827107 -0.6244530281
| 14> H 0.8139142469 1.1185313899 1.0826508068
| 15> H -0.6018525652 -0.9815274495 1.1420182654
| 16> H -2.6780643461 -0.6509477247 -0.0893792668
| 17> H -1.9086748014 0.7070012703 -1.0438235971
| 18> *
| 19>
| 20>                          ****END OF INPUT****

CARTESIAN COORDINATES (ANGSTROEM)
---------------------------------
  C      1.741307   -0.315295   -0.221285
  C      0.566292    0.585318    0.160415
  C     -0.678183   -0.213978    0.382159
  C     -1.807069   -0.047612   -0.280818
  H      1.930042   -1.046983    0.560993
  H      2.641420    0.276812   -0.365759
  H      1.524057   -0.847660   -1.144515
  H      0.396078    1.324283   -0.624453
  H      0.813914    1.118531    1.082651
  H     -0.601853   -0.981527    1.142018
  H     -2.678064   -0.650948   -0.089379
  H     -1.908675    0.707001   -1.043824

 Total Charge           Charge          ....    0
 Multiplicity           Mult            ....    1
 Number of Electrons    NEL             ....   32
 Basis Dimension        Dim             ....  116

ORBITAL ENERGIES
----------------

  NO   OCC          E(Eh)            E(eV)
   0   2.0000     -10.032292      -272.9925
   1   2.0000     -10.031967      -272.9837
   2   2.0000     -10.020828      -272.6806
   3   2.0000     -10.016721      -272.5688
   4   2.0000      -0.769174       -20.9303
   5   2.0000      -0.695955       -18.9379
   6   2.0000      -0.593799       -16.1581
   7   2.0000      -0.521858       -14.2005
   8   2.0000      -0.439987       -11.9727
   9   2.0000      -0.411450       -11.1961
  10   2.0000      -0.394771       -10.7423
  11   2.0000      -0.350498        -9.5375
  12   2.0000      -0.342429        -9.3180
  13   2.0000      -0.312185        -8.4950
  14   2.0000      -0.301534        -8.2052
  15   2.0000      -0.236058        -6.4235
  16   0.0000      -0.010922        -0.2972
  17   0.0000       0.100779         2.7423
  18   0.0000       0.124548         3.3891
  19   0.0000       0.135583         3.6894
  20   0.0000       0.144590         3.9345

MULLIKEN ATOMIC CHARGES
-----------------------
   0 C :   -0.449810
   1 C :   -0.248166
   2 C :   -0.081508
   3 C :   -0.369496
   4 H :    0.142940
   5 H :    0.144150
   6 H :    0.148440
   7 H :    0.139723
   8 H :    0.144536
   9 H :    0.148630
  10 H :    0.140614
  11 H :    0.139947
Sum of atomic charges:   -0.0000000

LOEWDIN ATOMIC CHARGES
----------------------
   0 C :   -0.416111
   1 C :   -0.306935
   2 C :   -0.196573
   3 C :   -0.319731
   4 H :    0.150055
   5 H :    0.150319
   6 H :    0.153540
   7 H :    0.155805
   8 H :    0.159705
   9 H :    0.159533
  10 H :    0.156080
  11 H :    0.154312

  Mayer bond orders larger than 0.100000
B(  0-C ,  1-C ) :   0.8862 B(  0-C ,  4-H ) :   0.9818 B(  0-C ,  5-H ) :   0.9701
B(  0-C ,  6-H ) :   0.9764 B(  1-C ,  2-C ) :   0.9342 B(  1-C ,  7-H ) :   0.9913
B(  1-C ,  8-H ) :   0.9664 B(  2-C ,  3-C ) :   1.9368 B(  2-C ,  9-H ) :   0.9244
B(  3-C , 10-H ) :   0.9609 B(  3-C , 11-H ) :   0.9873

Dispersion correction           -0.002257519
FINAL SINGLE POINT ENERGY      -157.158959774080

DIPOLE MOMENT
-------------

Method             : SCF
Type of density    : Electron Density
Multiplicity       :   1
Irrep              :   0
Energy             :  -157.1612300174223833 Eh
Relativity type    :
Basis              : AO
                                X                 Y                 Z
Electronic contribution:     -1.815277995       0.123168742       0.486889451
Nuclear contribution   :      1.986032474      -0.094277528      -0.452450406
                        -----------------------------------------
Total Dipole Moment    :      0.170754479       0.028891214       0.034439045
                        -----------------------------------------
Magnitude (a.u.)       :      0.176572484
Magnitude (Debye)      :      0.448811587

Rotational constants in cm-1:             0.763131             0.140944             0.137096
Rotational constants in MHz :         22878.102277          4225.391441          4110.035111

                             ****ORCA TERMINATED NORMALLY****
TOTAL RUN TIME: 0 days 0 hours 0 minutes 8 seconds 431 msec
