                         Program Version 6.0.0  -   RELEASE  -
|  1> ! pbe def2-sv(p) def2/J RI DEFGRID1 loosescf d4 GCP(DFT/SV(P)) printgap
|  2> %output
|  3>     printlevel normal
|  4> end
|  5> * xyz 0 1
|  6> C -3.3839562739 0.3501781025 0.1979352757
|  7> C -2.2150735696 -0.3285502749 -0.5103041979
|  8> H -2.5958804215 -0.8315106203 -1.4042094264
|  9> C -1.5542087422 -1.3654706981 0.4080813351
| 10> C -0.0824354346 -1.5570205255 0.0528089155
| 11> C 0.6992811543 -0.2845947193 0.4017623529
| 12> H 0.9405294775 -0.2732342046 1.4702697159
| 13> C -0.1542254816 0.9295801347 0.1148638099
| 14> O -0.0261487577 1.9835454057 0.7104064446
| 15> C -1.1760053526 0.7218659878 -0.9634462886
| 16> C 2.0334368838 -0.1662048311 -0.3777322603
| 17> C 2.8485229457 1.0289867647 0.1116769163
| 18> C 2.8655207105 -1.4397439847 -0.2315657386
| 19> H -4.0796799688 -0.3948681489 0.5763452995
| 20> H -3.0230010642 0.9448770474 1.0354298985
| 21> H -3.9197279393 1.0071274655 -0.4829905166
| 22> H -1.6204661868 -1.0244767422 1.4445451652
| 23> H -2.0874619875 -2.3137182661 0.335330009
| 24> H 0.3259293838 -2.399586882 0.6097946698
| 25> H 0.0070273062 -1.7796220523 -1.0114071314
| 26> H -1.6656570828 1.6669344435 -1.1989008623
| 27> H -0.655086226 0.3616104123 -1.8509458114
| 28> H 1.7976848186 -0.0202100049 -1.4382270993
| 29> H 3.7303337951 1.1627430399 -0.5100136152
| 30> H 3.1712974713 0.8690187858 1.1381709364
| 31> H 2.2656690215 1.9465365491 0.0814623663
| 32> H 2.3741254885 -2.2928930601 -0.6883557362
| 33> H 3.0410797587 -1.6574707483 0.8191516354
| 34> H 3.8281816003 -1.3018722729 -0.7175748973
| 35> *
| 36>
| 37>                          ****END OF INPUT****

CARTESIAN COORDINATES (ANGSTROEM)
---------------------------------
  C     -3.383956    0.350178    0.197935
  C     -2.215074   -0.328550   -0.510304
  H     -2.595880   -0.831511   -1.404209
  C     -1.554209   -1.365471    0.408081
  C     -0.082435   -1.557021    0.052809
  C      0.699281   -0.284595    0.401762
  H      0.940529   -0.273234    1.470270
  C     -0.154225    0.929580    0.114864
  O     -0.026149    1.983545    0.710406
  C     -1.176005    0.721866   -0.963446
  C      2.033437   -0.166205   -0.377732
  C      2.848523    1.028987    0.111677
  C      2.865521   -1.439744   -0.231566
  H     -4.079680   -0.394868    0.576345
  H     -3.023001    0.944877    1.035430
  H     -3.919728    1.007127   -0.482991
  H     -1.620466   -1.024477    1.444545
  H     -2.087462   -2.313718    0.335330
  H      0.325929   -2.399587    0.609795
  H      0.007027   -1.779622   -1.011407
  H     -1.665657    1.666934   -1.198901
  H     -0.655086    0.361610   -1.850946
  H      1.797685   -0.020210   -1.438227
  H      3.730334    1.162743   -0.510014
  H      3.171297    0.869019    1.138171
  H      2.265669    1.946537    0.081462
  H      2.374125   -2.292893   -0.688356
  H      3.041080   -1.657471    0.819152
  H      3.828182   -1.301872   -0.717575

 Total Charge           Charge          ....    0
 Multiplicity           Mult            ....    1
 Number of Electrons    NEL             ....   86
 Basis Dimension        Dim             ....  190

ORBITAL ENERGIES
----------------

  NO   OCC          E(Eh)            E(eV)
   0   2.0000     -18.737174      -509.8644
   1   2.0000      -9.967053      -271.2173
   2   2.0000      -9.905957      -269.5548
   3   2.0000      -9.905779      -269.5500
   4   2.0000      -9.897913      -269.3359
   5   2.0000      -9.893191      -269.2074
   6   2.0000      -9.890671      -269.1388
   7   2.0000      -9.890062      -269.1223
   8   2.0000      -9.879228      -268.8275
   9   2.0000      -9.878727      -268.8138
  10   2.0000      -9.869460      -268.5617
  11   2.0000      -0.931789       -25.3553
  12   2.0000      -0.770802       -20.9746
  13   2.0000      -0.732010       -19.9190
  14   2.0000      -0.679315       -18.4851
  15   2.0000      -0.653760       -17.7897
  16   2.0000      -0.614759       -16.7284
  17   2.0000      -0.609362       -16.5816
  18   2.0000      -0.551087       -14.9958
  19   2.0000      -0.524028       -14.2595
  20   2.0000      -0.508138       -13.8271
  21   2.0000      -0.468643       -12.7524
  22   2.0000      -0.443437       -12.0665
  23   2.0000      -0.415569       -11.3082
  24   2.0000      -0.410990       -11.1836
  25   2.0000      -0.403392       -10.9768
  26   2.0000      -0.392088       -10.6693
  27   2.0000      -0.368379       -10.0241
  28   2.0000      -0.364817        -9.9272
  29   2.0000      -0.357604        -9.7309
  30   2.0000      -0.352203        -9.5839
  31   2.0000      -0.346889        -9.4393
  32   2.0000      -0.340721        -9.2715
  33   2.0000      -0.334368        -9.0986
  34   2.0000      -0.315898        -8.5960
  35   2.0000      -0.314295        -8.5524
  36   2.0000      -0.300713        -8.1828
  37   2.0000      -0.297633        -8.0990
  38   2.0000      -0.293506        -7.9867
  39   2.0000      -0.281412        -7.6576
  40   2.0000      -0.279206        -7.5976
  41   2.0000      -0.269316        -7.3285
  42   2.0000      -0.187020        -5.0891
  43   0.0000      -0.051521        -1.4020
  44   0.0000       0.027108         0.7376
  45   0.0000       0.043792         1.1916
  46   0.0000       0.047575         1.2946
  47   0.0000       0.064670         1.7597

MULLIKEN ATOMIC CHARGES
-----------------------
   0 C :   -0.240378
   1 C :   -0.203544
   2 H :    0.071166
   3 C :   -0.098103
   4 C :   -0.105419
   5 C :   -0.135137
   6 H :    0.068783
   7 C :   -0.009443
   8 O :   -0.165145
   9 C :   -0.043378
  10 C :   -0.190612
  11 C :   -0.237088
  12 C :   -0.219352
  13 H :    0.102781
  14 H :    0.112179
  15 H :    0.101286
  16 H :    0.080403
  17 H :    0.085057
  18 H :    0.092844
  19 H :    0.073604
  20 H :    0.084707
  21 H :    0.092356
  22 H :    0.068846
  23 H :    0.095349
  24 H :    0.092195
  25 H :    0.124193
  26 H :    0.105798
  27 H :    0.093843
  28 H :    0.102212
Sum of atomic charges:   -0.0000000

LOEWDIN ATOMIC CHARGES
----------------------
   0 C :   -0.328871
   1 C :   -0.141717
   2 H :    0.117464
   3 C :   -0.219633
   4 C :   -0.219280
   5 C :   -0.156336
   6 H :    0.129563
   7 C :    0.053745
   8 O :   -0.132688
   9 C :   -0.236549
  10 C :   -0.138318
  11 C :   -0.333719
  12 C :   -0.327407
  13 H :    0.119327
  14 H :    0.122714
  15 H :    0.118946
  16 H :    0.119777
  17 H :    0.120708
  18 H :    0.123033
  19 H :    0.116674
  20 H :    0.128583
  21 H :    0.133580
  22 H :    0.113046
  23 H :    0.116555
  24 H :    0.118376
  25 H :    0.125193
  26 H :    0.117427
  27 H :    0.118914
  28 H :    0.120894

  Mayer bond orders larger than 0.100000
B(  0-C ,  1-C ) :   1.1157 B(  0-C , 13-H ) :   0.9490 B(  0-C , 14-H ) :   0.9462
B(  0-C , 15-H ) :   0.9469 B(  1-C ,  2-H ) :   0.8893 B(  1-C ,  3-C ) :   1.1030
B(  1-C ,  9-C ) :   1.0692 B(  3-C ,  4-C ) :   1.1874 B(  3-C , 16-H ) :   0.8992
B(  3-C , 17-H ) :   0.9105 B(  4-C ,  5-C ) :   1.0668 B(  4-C , 18-H ) :   0.9015
B(  4-C , 19-H ) :   0.8848 B(  5-C ,  6-H ) :   0.8616 B(  5-C ,  7-C ) :   0.9551
B(  5-C , 10-C ) :   1.0339 B(  7-C ,  8-O ) :   2.1465 B(  7-C ,  9-C ) :   1.0859
B(  9-C , 20-H ) :   0.8939 B(  9-C , 21-H ) :   0.8653 B( 10-C , 11-C ) :   1.1194
B( 10-C , 12-C ) :   1.1162 B( 10-C , 22-H ) :   0.8903 B( 11-C , 23-H ) :   0.9458
B( 11-C , 24-H ) :   0.9475 B( 11-C , 25-H ) :   0.9338 B( 12-C , 26-H ) :   0.9384
B( 12-C , 27-H ) :   0.9459 B( 12-C , 28-H ) :   0.9484

Dispersion correction           -0.030320628
FINAL SINGLE POINT ENERGY      -466.029591020411

DIPOLE MOMENT
-------------

Method             : SCF
Type of density    : Electron Density
Multiplicity       :   1
Irrep              :   0
Energy             :  -466.1261585077828613 Eh
Relativity type    :
Basis              : AO
                                X                 Y                 Z
Electronic contribution:     -1.838908145       4.946529234       1.178478650
Nuclear contribution   :      1.721049348      -5.909742390      -1.670772600
                        -----------------------------------------
Total Dipole Moment    :     -0.117858798      -0.963213156      -0.492293949
                        -----------------------------------------
Magnitude (a.u.)       :      1.088128491
Magnitude (Debye)      :      2.765802821

Rotational constants in cm-1:             0.065290             0.025362             0.020387
Rotational constants in MHz :          1957.349420           760.338834           611.182082

                             ****ORCA TERMINATED NORMALLY****
TOTAL RUN TIME: 0 days 0 hours 0 minutes 16 seconds 73 msec
