                         Program Version 6.0.0  -   RELEASE  -
|  1> ! r2scan-3c def2/J RI DEFGRID2 scfconv6 printgap
|  2> %output
|  3>     printlevel normal
|  4> end
|  5> * xyz 0 1
|  6> C 0.5049445161 0.9964467887 -1.1913012433
|  7> C 0.3757186506 0.1521889718 0.0834094257
|  8> C 0.9422528065 0.92021713 1.2937524645
|  9> C 1.1170915898 -1.1783325586 -0.0992731147
| 10> O -1.0055967317 -0.0599399106 0.430644254
| 11> C -1.817097952 -0.7741405825 -0.4742040782
| 12> H 0.1744931839 0.4428037025 -2.0670141979
| 13> H -0.0943296406 1.89929302 -1.0979922752
| 14> H 1.5451669737 1.2725917099 -1.3357988638
| 15> H 1.3249295452 1.8916038381 0.9977113896
| 16> H 1.7373826339 0.3606780134 1.7759441156
| 17> H 0.1402438488 1.0690694409 2.0118568653
| 18> H 0.948213238 -1.8170484357 0.7648363378
| 19> H 0.7807212565 -1.6976198732 -0.9935881871
| 20> H 2.1813003282 -0.9858038345 -0.1966151203
| 21> H -1.4742918061 -1.8045868905 -0.6052796533
| 22> H -1.8754973387 -0.2823476727 -1.4491654212
| 23> H -2.8070473623 -0.7840279611 -0.0217690268
| 24> *
| 25>
| 26>                          ****END OF INPUT****

CARTESIAN COORDINATES (ANGSTROEM)
---------------------------------
  C      0.504945    0.996447   -1.191301
  C      0.375719    0.152189    0.083409
  C      0.942253    0.920217    1.293752
  C      1.117092   -1.178333   -0.099273
  O     -1.005597   -0.059940    0.430644
  C     -1.817098   -0.774141   -0.474204
  H      0.174493    0.442804   -2.067014
  H     -0.094330    1.899293   -1.097992
  H      1.545167    1.272592   -1.335799
  H      1.324930    1.891604    0.997711
  H      1.737383    0.360678    1.775944
  H      0.140244    1.069069    2.011857
  H      0.948213   -1.817048    0.764836
  H      0.780721   -1.697620   -0.993588
  H      2.181300   -0.985804   -0.196615
  H     -1.474292   -1.804587   -0.605280
  H     -1.875497   -0.282348   -1.449165
  H     -2.807047   -0.784028   -0.021769

 Total Charge           Charge          ....    0
 Multiplicity           Mult            ....    1
 Number of Electrons    NEL             ....   50
 Basis Dimension        Dim             ....  179

ORBITAL ENERGIES
----------------

  NO   OCC          E(Eh)            E(eV)
   0   2.0000     -18.941176      -515.4156
   1   2.0000     -10.088577      -274.5241
   2   2.0000     -10.063898      -273.8526
   3   2.0000     -10.016950      -272.5751
   4   2.0000     -10.016635      -272.5665
   5   2.0000     -10.010885      -272.4100
   6   2.0000      -0.985445       -26.8153
   7   2.0000      -0.761868       -20.7315
   8   2.0000      -0.662580       -18.0297
   9   2.0000      -0.656842       -17.8736
  10   2.0000      -0.635249       -17.2860
  11   2.0000      -0.514891       -14.0109
  12   2.0000      -0.450304       -12.2534
  13   2.0000      -0.428677       -11.6649
  14   2.0000      -0.422564       -11.4986
  15   2.0000      -0.400506       -10.8983
  16   2.0000      -0.385719       -10.4960
  17   2.0000      -0.367230        -9.9928
  18   2.0000      -0.354112        -9.6359
  19   2.0000      -0.336172        -9.1477
  20   2.0000      -0.331581        -9.0228
  21   2.0000      -0.309634        -8.4256
  22   2.0000      -0.308859        -8.4045
  23   2.0000      -0.265125        -7.2144
  24   2.0000      -0.214762        -5.8440
  25   0.0000       0.071316         1.9406
  26   0.0000       0.094186         2.5629
  27   0.0000       0.119981         3.2648
  28   0.0000       0.129491         3.5236
  29   0.0000       0.135068         3.6754

MULLIKEN ATOMIC CHARGES
-----------------------
   0 C :   -0.526523
   1 C :    0.329179
   2 C :   -0.564053
   3 C :   -0.529765
   4 O :   -0.248947
   5 C :   -0.309316
   6 H :    0.145534
   7 H :    0.167222
   8 H :    0.154256
   9 H :    0.154905
  10 H :    0.154946
  11 H :    0.184292
  12 H :    0.167584
  13 H :    0.147412
  14 H :    0.154482
  15 H :    0.136617
  16 H :    0.135158
  17 H :    0.147016
Sum of atomic charges:   -0.0000000

LOEWDIN ATOMIC CHARGES
----------------------
   0 C :   -0.393007
   1 C :    0.067802
   2 C :   -0.367746
   3 C :   -0.392948
   4 O :   -0.794732
   5 C :   -0.068659
   6 H :    0.155586
   7 H :    0.165666
   8 H :    0.161094
   9 H :    0.158403
  10 H :    0.158435
  11 H :    0.182981
  12 H :    0.165553
  13 H :    0.156207
  14 H :    0.161351
  15 H :    0.153896
  16 H :    0.153847
  17 H :    0.176270

  Mayer bond orders larger than 0.100000
B(  0-C ,  1-C ) :   0.9130 B(  0-C ,  6-H ) :   0.9682 B(  0-C ,  7-H ) :   0.9751
B(  0-C ,  8-H ) :   0.9694 B(  1-C ,  2-C ) :   0.8347 B(  1-C ,  3-C ) :   0.9075
B(  1-C ,  4-O ) :   0.8321 B(  2-C ,  9-H ) :   0.9782 B(  2-C , 10-H ) :   0.9783
B(  2-C , 11-H ) :   0.9873 B(  3-C , 12-H ) :   0.9752 B(  3-C , 13-H ) :   0.9683
B(  3-C , 14-H ) :   0.9689 B(  4-O ,  5-C ) :   0.9122 B(  5-C , 15-H ) :   0.9636
B(  5-C , 16-H ) :   0.9630 B(  5-C , 17-H ) :   0.9711

Dispersion correction           -0.004519479
FINAL SINGLE POINT ENERGY      -272.884414079752

DIPOLE MOMENT
-------------

Method             : SCF
Type of density    : Electron Density
Multiplicity       :   1
Irrep              :   0
Energy             :  -272.8914354060081564 Eh
Relativity type    :
Basis              : AO
                                X                 Y                 Z
Electronic contribution:     -2.198129039       0.269070173       1.698015817
Nuclear contribution   :      2.406744061      -0.409361235      -2.073399635
                        -----------------------------------------
Total Dipole Moment    :      0.208615021      -0.140291061      -0.375383818
                        -----------------------------------------
Magnitude (a.u.)       :      0.451790682
Magnitude (Debye)      :      1.148360651

Rotational constants in cm-1:             0.146132             0.090881             0.089986
Rotational constants in MHz :          4380.917288          2724.541978          2697.707841

                             ****ORCA TERMINATED NORMALLY****
TOTAL RUN TIME: 0 days 0 hours 0 minutes 20 seconds 287 msec
