                         Program Version 6.0.0  -   RELEASE  -
|  1> ! r2scan-3c def2/J RI DEFGRID2 scfconv6 printgap
|  2> %output
|  3>     printlevel normal
|  4> end
|  5> %cpcm
|  6>     smd true
|  7>     smdsolvent "water"
|  8> end
|  9> * xyz 0 1
| 10> C 0.5049445161 0.9964467887 -1.1913012433
| 11> C 0.3757186506 0.1521889718 0.0834094257
| 12> C 0.9422528065 0.92021713 1.2937524645
| 13> C 1.1170915898 -1.1783325586 -0.0992731147
| 14> O -1.0055967317 -0.0599399106 0.430644254
| 15> C -1.817097952 -0.7741405825 -0.4742040782
| 16> H 0.1744931839 0.4428037025 -2.0670141979
| 17> H -0.0943296406 1.89929302 -1.0979922752
| 18> H 1.5451669737 1.2725917099 -1.3357988638
| 19> H 1.3249295452 1.8916038381 0.9977113896
| 20> H 1.7373826339 0.3606780134 1.7759441156
| 21> H 0.1402438488 1.0690694409 2.0118568653
| 22> H 0.948213238 -1.8170484357 0.7648363378
| 23> H 0.7807212565 -1.6976198732 -0.9935881871
| 24> H 2.1813003282 -0.9858038345 -0.1966151203
| 25> H -1.4742918061 -1.8045868905 -0.6052796533
| 26> H -1.8754973387 -0.2823476727 -1.4491654212
| 27> H -2.8070473623 -0.7840279611 -0.0217690268
| 28> *
| 29>
| 30>                          ****END OF INPUT****

CARTESIAN COORDINATES (ANGSTROEM)
---------------------------------
  C      0.504945    0.996447   -1.191301
  C      0.375719    0.152189    0.083409
  C      0.942253    0.920217    1.293752
  C      1.117092   -1.178333   -0.099273
  O     -1.005597   -0.059940    0.430644
  C     -1.817098   -0.774141   -0.474204
  H      0.174493    0.442804   -2.067014
  H     -0.094330    1.899293   -1.097992
  H      1.545167    1.272592   -1.335799
  H      1.324930    1.891604    0.997711
  H      1.737383    0.360678    1.775944
  H      0.140244    1.069069    2.011857
  H      0.948213   -1.817048    0.764836
  H      0.780721   -1.697620   -0.993588
  H      2.181300   -0.985804   -0.196615
  H     -1.474292   -1.804587   -0.605280
  H     -1.875497   -0.282348   -1.449165
  H     -2.807047   -0.784028   -0.021769

 Total Charge           Charge          ....    0
 Multiplicity           Mult            ....    1
 Number of Electrons    NEL             ....   50
 Basis Dimension        Dim             ....  179

ORBITAL ENERGIES
----------------

  NO   OCC          E(Eh)            E(eV)
   0   2.0000     -18.948573      -515.6169
   1   2.0000     -10.085942      -274.4524
   2   2.0000     -10.058763      -273.7128
   3   2.0000     -10.008573      -272.3471
   4   2.0000     -10.008399      -272.3424
   5   2.0000     -10.007530      -272.3187
   6   2.0000      -0.991297       -26.9745
   7   2.0000      -0.758106       -20.6291
   8   2.0000      -0.658543       -17.9199
   9   2.0000      -0.649551       -17.6752
  10   2.0000      -0.632223       -17.2037
  11   2.0000      -0.512327       -13.9411
  12   2.0000      -0.446449       -12.1485
  13   2.0000      -0.426739       -11.6122
  14   2.0000      -0.420636       -11.4461
  15   2.0000      -0.394596       -10.7375
  16   2.0000      -0.381365       -10.3775
  17   2.0000      -0.360117        -9.7993
  18   2.0000      -0.346370        -9.4252
  19   2.0000      -0.334567        -9.1040
  20   2.0000      -0.324065        -8.8183
  21   2.0000      -0.305408        -8.3106
  22   2.0000      -0.304461        -8.2848
  23   2.0000      -0.268726        -7.3124
  24   2.0000      -0.220046        -5.9878
  25   0.0000       0.075896         2.0652
  26   0.0000       0.102495         2.7890
  27   0.0000       0.124823         3.3966
  28   0.0000       0.135683         3.6921
  29   0.0000       0.139281         3.7900

MULLIKEN ATOMIC CHARGES
-----------------------
   0 C :   -0.553537
   1 C :    0.344073
   2 C :   -0.597354
   3 C :   -0.554752
   4 O :   -0.325279
   5 C :   -0.320657
   6 H :    0.164950
   7 H :    0.169094
   8 H :    0.172939
   9 H :    0.172461
  10 H :    0.172570
  11 H :    0.177904
  12 H :    0.169630
  13 H :    0.165998
  14 H :    0.173112
  15 H :    0.154543
  16 H :    0.154199
  17 H :    0.160107
Sum of atomic charges:   -0.0000000

LOEWDIN ATOMIC CHARGES
----------------------
   0 C :   -0.396056
   1 C :    0.068160
   2 C :   -0.375079
   3 C :   -0.395735
   4 O :   -0.835614
   5 C :   -0.069522
   6 H :    0.161710
   7 H :    0.165635
   8 H :    0.167813
   9 H :    0.164596
  10 H :    0.164604
  11 H :    0.177968
  12 H :    0.165730
  13 H :    0.162152
  14 H :    0.168025
  15 H :    0.162532
  16 H :    0.162864
  17 H :    0.180216

  Mayer bond orders larger than 0.100000
B(  0-C ,  1-C ) :   0.9193 B(  0-C ,  6-H ) :   0.9647 B(  0-C ,  7-H ) :   0.9687
B(  0-C ,  8-H ) :   0.9640 B(  1-C ,  2-C ) :   0.8357 B(  1-C ,  3-C ) :   0.9148
B(  1-C ,  4-O ) :   0.8179 B(  2-C ,  9-H ) :   0.9733 B(  2-C , 10-H ) :   0.9734
B(  2-C , 11-H ) :   0.9870 B(  3-C , 12-H ) :   0.9685 B(  3-C , 13-H ) :   0.9649
B(  3-C , 14-H ) :   0.9636 B(  4-O ,  5-C ) :   0.9062 B(  5-C , 15-H ) :   0.9581
B(  5-C , 16-H ) :   0.9574 B(  5-C , 17-H ) :   0.9643

Dispersion correction           -0.004519479
FINAL SINGLE POINT ENERGY      -272.885512567112

DIPOLE MOMENT
-------------

Method             : SCF
Type of density    : Electron Density
Multiplicity       :   1
Irrep              :   0
Energy             :  -272.8925338933682951 Eh
Relativity type    :
Basis              : AO
                                X                 Y                 Z
Electronic contribution:     -2.039248602       0.186858548       1.456138292
Nuclear contribution   :      2.406744061      -0.409361235      -2.073399635
                        -----------------------------------------
Total Dipole Moment    :      0.367495458      -0.222502687      -0.617261343
                        -----------------------------------------
Magnitude (a.u.)       :      0.752045161
Magnitude (Debye)      :      1.911546885

Rotational constants in cm-1:             0.146132             0.090881             0.089986
Rotational constants in MHz :          4380.917288          2724.541978          2697.707841

                             ****ORCA TERMINATED NORMALLY****
TOTAL RUN TIME: 0 days 0 hours 0 minutes 24 seconds 316 msec
