                         Program Version 6.0.0  -   RELEASE  -
|  1> ! r2scan-3c def2/J RI DEFGRID2 scfconv6 printgap
|  2> %output
|  3>     printlevel normal
|  4> end
|  5> * xyz 0 1
|  6> C -3.4179665091 0.5931569695 0.0634911045
|  7> C -1.9229347436 0.4980820503 0.0731584919
|  8> C -1.1285744895 1.5063757704 -0.26021642
|  9> C 0.3668852456 1.4493599407 -0.2655063041
| 10> C 0.8712003137 0.0014220163 -0.2885257534
| 11> H 0.6224185263 -0.4202621769 -1.2690037612
| 12> C 0.1241421325 -0.7904833239 0.7868381408
| 13> C -1.37412239 -0.855653041 0.4706841592
| 14> H -1.9144153566 -1.2125363361 1.3569418432
| 15> O -1.6733286863 -1.8386526335 -0.5145970665
| 16> C 2.3711184605 -0.0583789525 -0.1316566126
| 17> C 3.1543359428 -0.2920467669 -1.1739404805
| 18> C 2.9328511832 0.1668715244 1.238930231
| 19> H -3.836370384 -0.2604507148 -0.4677726646
| 20> H -3.750484813 1.5120933491 -0.411015878
| 21> H -3.7994303728 0.565866367 1.0839134413
| 22> H -1.5618961927 2.4599000869 -0.5323937497
| 23> H 0.754065568 1.9902652525 -1.1321239311
| 24> H 0.7398563699 1.9617907544 0.6265382193
| 25> H 0.5115466874 -1.8094206892 0.8500547975
| 26> H 0.2486443688 -0.3074113801 1.75581534
| 27> H -1.2159678814 -1.6044983918 -1.3335370674
| 28> H 4.2273359085 -0.3192968559 -1.0854962657
| 29> H 2.7579124696 -0.4667268705 -2.1603275291
| 30> H 2.700828467 -0.6798635483 1.8829947316
| 31> H 4.0126290784 0.2786390931 1.1943077298
| 32> H 2.5068863842 1.0586715885 1.6934113226
| 33> *
| 34>
| 35>                          ****END OF INPUT****

CARTESIAN COORDINATES (ANGSTROEM)
---------------------------------
  C     -3.417967    0.593157    0.063491
  C     -1.922935    0.498082    0.073158
  C     -1.128574    1.506376   -0.260216
  C      0.366885    1.449360   -0.265506
  C      0.871200    0.001422   -0.288526
  H      0.622419   -0.420262   -1.269004
  C      0.124142   -0.790483    0.786838
  C     -1.374122   -0.855653    0.470684
  H     -1.914415   -1.212536    1.356942
  O     -1.673329   -1.838653   -0.514597
  C      2.371118   -0.058379   -0.131657
  C      3.154336   -0.292047   -1.173940
  C      2.932851    0.166872    1.238930
  H     -3.836370   -0.260451   -0.467773
  H     -3.750485    1.512093   -0.411016
  H     -3.799430    0.565866    1.083913
  H     -1.561896    2.459900   -0.532394
  H      0.754066    1.990265   -1.132124
  H      0.739856    1.961791    0.626538
  H      0.511547   -1.809421    0.850055
  H      0.248644   -0.307411    1.755815
  H     -1.215968   -1.604498   -1.333537
  H      4.227336   -0.319297   -1.085496
  H      2.757912   -0.466727   -2.160328
  H      2.700828   -0.679864    1.882995
  H      4.012629    0.278639    1.194308
  H      2.506886    1.058672    1.693411

 Total Charge           Charge          ....    0
 Multiplicity           Mult            ....    1
 Number of Electrons    NEL             ....   84
 Basis Dimension        Dim             ....  294

ORBITAL ENERGIES
----------------

  NO   OCC          E(Eh)            E(eV)
   0   2.0000     -18.947436      -515.5860
   1   2.0000     -10.083307      -274.3807
   2   2.0000     -10.043727      -273.3037
   3   2.0000     -10.041700      -273.2485
   4   2.0000     -10.035566      -273.0816
   5   2.0000     -10.032803      -273.0064
   6   2.0000     -10.028866      -272.8993
   7   2.0000     -10.027405      -272.8596
   8   2.0000     -10.027042      -272.8497
   9   2.0000     -10.020123      -272.6614
  10   2.0000     -10.013648      -272.4852
  11   2.0000      -0.985019       -26.8037
  12   2.0000      -0.816232       -22.2108
  13   2.0000      -0.773367       -21.0444
  14   2.0000      -0.723549       -19.6888
  15   2.0000      -0.706174       -19.2160
  16   2.0000      -0.659339       -17.9415
  17   2.0000      -0.645261       -17.5584
  18   2.0000      -0.595637       -16.2081
  19   2.0000      -0.570277       -15.5180
  20   2.0000      -0.513948       -13.9852
  21   2.0000      -0.491504       -13.3745
  22   2.0000      -0.455865       -12.4047
  23   2.0000      -0.440396       -11.9838
  24   2.0000      -0.422899       -11.5077
  25   2.0000      -0.419981       -11.4283
  26   2.0000      -0.407957       -11.1011
  27   2.0000      -0.396764       -10.7965
  28   2.0000      -0.388415       -10.5693
  29   2.0000      -0.384945       -10.4749
  30   2.0000      -0.373922       -10.1749
  31   2.0000      -0.361753        -9.8438
  32   2.0000      -0.342310        -9.3147
  33   2.0000      -0.339374        -9.2348
  34   2.0000      -0.330162        -8.9842
  35   2.0000      -0.321405        -8.7459
  36   2.0000      -0.306208        -8.3323
  37   2.0000      -0.290527        -7.9056
  38   2.0000      -0.282618        -7.6904
  39   2.0000      -0.237124        -6.4525
  40   2.0000      -0.228336        -6.2133
  41   2.0000      -0.218901        -5.9566
  42   0.0000      -0.014782        -0.4022
  43   0.0000      -0.006291        -0.1712
  44   0.0000       0.055795         1.5183
  45   0.0000       0.077992         2.1223
  46   0.0000       0.094637         2.5752

MULLIKEN ATOMIC CHARGES
-----------------------
   0 C :   -0.552804
   1 C :    0.100611
   2 C :   -0.197664
   3 C :   -0.337071
   4 C :   -0.043804
   5 H :    0.160155
   6 C :   -0.363643
   7 C :   -0.026795
   8 H :    0.149693
   9 O :   -0.409576
  10 C :    0.087208
  11 C :   -0.386706
  12 C :   -0.545549
  13 H :    0.175914
  14 H :    0.148728
  15 H :    0.157439
  16 H :    0.153394
  17 H :    0.160413
  18 H :    0.166651
  19 H :    0.181379
  20 H :    0.159796
  21 H :    0.298845
  22 H :    0.138407
  23 H :    0.140452
  24 H :    0.169202
  25 H :    0.152559
  26 H :    0.162768
Sum of atomic charges:    0.0000000

LOEWDIN ATOMIC CHARGES
----------------------
   0 C :   -0.388362
   1 C :   -0.108781
   2 C :   -0.185303
   3 C :   -0.266181
   4 C :   -0.197479
   5 H :    0.165146
   6 C :   -0.254980
   7 C :    0.076838
   8 H :    0.190599
   9 O :   -0.596441
  10 C :   -0.118688
  11 C :   -0.321414
  12 C :   -0.393935
  13 H :    0.170376
  14 H :    0.157390
  15 H :    0.161419
  16 H :    0.164341
  17 H :    0.168309
  18 H :    0.168199
  19 H :    0.174399
  20 H :    0.169446
  21 H :    0.266751
  22 H :    0.155993
  23 H :    0.157063
  24 H :    0.165583
  25 H :    0.160820
  26 H :    0.158892

  Mayer bond orders larger than 0.100000
B(  0-C ,  1-C ) :   0.8322 B(  0-C , 13-H ) :   0.9708 B(  0-C , 14-H ) :   0.9975
B(  0-C , 15-H ) :   0.9702 B(  1-C ,  2-C ) :   1.8353 B(  1-C ,  7-C ) :   0.9375
B(  2-C ,  3-C ) :   0.9124 B(  2-C , 16-H ) :   0.9241 B(  3-C ,  4-C ) :   0.9181
B(  3-C , 17-H ) :   0.9643 B(  3-C , 18-H ) :   0.9867 B(  4-C ,  5-H ) :   0.9996
B(  4-C ,  6-C ) :   0.8365 B(  4-C , 10-C ) :   0.8814 B(  6-C ,  7-C ) :   0.9404
B(  6-C , 19-H ) :   0.9777 B(  6-C , 20-H ) :   0.9773 B(  7-C ,  8-H ) :   0.9812
B(  7-C ,  9-O ) :   0.9488 B(  9-O , 21-H ) :   0.8880 B( 10-C , 11-C ) :   1.8677
B( 10-C , 12-C ) :   0.8766 B( 11-C , 22-H ) :   0.9682 B( 11-C , 23-H ) :   0.9917
B( 12-C , 24-H ) :   0.9649 B( 12-C , 25-H ) :   0.9799 B( 12-C , 26-H ) :   0.9810

Dispersion correction           -0.009625694
FINAL SINGLE POINT ENERGY      -465.759694715072

DIPOLE MOMENT
-------------

Method             : SCF
Type of density    : Electron Density
Multiplicity       :   1
Irrep              :   0
Energy             :  -465.7617740414328864 Eh
Relativity type    :
Basis              : AO
                                X                 Y                 Z
Electronic contribution:     -2.537929746      -2.027535836      -1.771407692
Nuclear contribution   :      2.793024994       2.549652930       1.917774530
                        -----------------------------------------
Total Dipole Moment    :      0.255095248       0.522117094       0.146366838
                        -----------------------------------------
Magnitude (a.u.)       :      0.599252115
Magnitude (Debye)      :      1.523177826

Rotational constants in cm-1:             0.071266             0.022293             0.020184
Rotational constants in MHz :          2136.495530           668.334868           605.089586

                             ****ORCA TERMINATED NORMALLY****
TOTAL RUN TIME: 0 days 0 hours 0 minutes 43 seconds 59 msec
