                         Program Version 6.0.0  -   RELEASE  -
|  1> ! r2scan-3c def2/J RI DEFGRID2 scfconv6 printgap
|  2> %output
|  3>     printlevel normal
|  4> end
|  5> %cpcm
|  6>     smd true
|  7>     smdsolvent "water"
|  8> end
|  9> * xyz 0 1
| 10> C -3.4179665091 0.5931569695 0.0634911045
| 11> C -1.9229347436 0.4980820503 0.0731584919
| 12> C -1.1285744895 1.5063757704 -0.26021642
| 13> C 0.3668852456 1.4493599407 -0.2655063041
| 14> C 0.8712003137 0.0014220163 -0.2885257534
| 15> H 0.6224185263 -0.4202621769 -1.2690037612
| 16> C 0.1241421325 -0.7904833239 0.7868381408
| 17> C -1.37412239 -0.855653041 0.4706841592
| 18> H -1.9144153566 -1.2125363361 1.3569418432
| 19> O -1.6733286863 -1.8386526335 -0.5145970665
| 20> C 2.3711184605 -0.0583789525 -0.1316566126
| 21> C 3.1543359428 -0.2920467669 -1.1739404805
| 22> C 2.9328511832 0.1668715244 1.238930231
| 23> H -3.836370384 -0.2604507148 -0.4677726646
| 24> H -3.750484813 1.5120933491 -0.411015878
| 25> H -3.7994303728 0.565866367 1.0839134413
| 26> H -1.5618961927 2.4599000869 -0.5323937497
| 27> H 0.754065568 1.9902652525 -1.1321239311
| 28> H 0.7398563699 1.9617907544 0.6265382193
| 29> H 0.5115466874 -1.8094206892 0.8500547975
| 30> H 0.2486443688 -0.3074113801 1.75581534
| 31> H -1.2159678814 -1.6044983918 -1.3335370674
| 32> H 4.2273359085 -0.3192968559 -1.0854962657
| 33> H 2.7579124696 -0.4667268705 -2.1603275291
| 34> H 2.700828467 -0.6798635483 1.8829947316
| 35> H 4.0126290784 0.2786390931 1.1943077298
| 36> H 2.5068863842 1.0586715885 1.6934113226
| 37> *
| 38>
| 39>                          ****END OF INPUT****

CARTESIAN COORDINATES (ANGSTROEM)
---------------------------------
  C     -3.417967    0.593157    0.063491
  C     -1.922935    0.498082    0.073158
  C     -1.128574    1.506376   -0.260216
  C      0.366885    1.449360   -0.265506
  C      0.871200    0.001422   -0.288526
  H      0.622419   -0.420262   -1.269004
  C      0.124142   -0.790483    0.786838
  C     -1.374122   -0.855653    0.470684
  H     -1.914415   -1.212536    1.356942
  O     -1.673329   -1.838653   -0.514597
  C      2.371118   -0.058379   -0.131657
  C      3.154336   -0.292047   -1.173940
  C      2.932851    0.166872    1.238930
  H     -3.836370   -0.260451   -0.467773
  H     -3.750485    1.512093   -0.411016
  H     -3.799430    0.565866    1.083913
  H     -1.561896    2.459900   -0.532394
  H      0.754066    1.990265   -1.132124
  H      0.739856    1.961791    0.626538
  H      0.511547   -1.809421    0.850055
  H      0.248644   -0.307411    1.755815
  H     -1.215968   -1.604498   -1.333537
  H      4.227336   -0.319297   -1.085496
  H      2.757912   -0.466727   -2.160328
  H      2.700828   -0.679864    1.882995
  H      4.012629    0.278639    1.194308
  H      2.506886    1.058672    1.693411

 Total Charge           Charge          ....    0
 Multiplicity           Mult            ....    1
 Number of Electrons    NEL             ....   84
 Basis Dimension        Dim             ....  294

ORBITAL ENERGIES
----------------

  NO   OCC          E(Eh)            E(eV)
   0   2.0000     -18.950777      -515.6769
   1   2.0000     -10.078579      -274.2521
   2   2.0000     -10.038035      -273.1488
   3   2.0000     -10.032849      -273.0077
   4   2.0000     -10.027912      -272.8733
   5   2.0000     -10.025067      -272.7959
   6   2.0000     -10.021090      -272.6877
   7   2.0000     -10.020010      -272.6583
   8   2.0000     -10.015150      -272.5261
   9   2.0000     -10.013882      -272.4916
  10   2.0000     -10.006127      -272.2806
  11   2.0000      -0.987647       -26.8752
  12   2.0000      -0.808633       -22.0040
  13   2.0000      -0.767725       -20.8909
  14   2.0000      -0.716592       -19.4995
  15   2.0000      -0.698925       -19.0187
  16   2.0000      -0.650197       -17.6928
  17   2.0000      -0.639375       -17.3983
  18   2.0000      -0.589518       -16.0416
  19   2.0000      -0.562679       -15.3113
  20   2.0000      -0.508476       -13.8363
  21   2.0000      -0.483020       -13.1437
  22   2.0000      -0.449182       -12.2229
  23   2.0000      -0.433084       -11.7848
  24   2.0000      -0.416889       -11.3441
  25   2.0000      -0.413633       -11.2555
  26   2.0000      -0.402582       -10.9548
  27   2.0000      -0.390005       -10.6126
  28   2.0000      -0.381349       -10.3770
  29   2.0000      -0.375466       -10.2170
  30   2.0000      -0.365357        -9.9419
  31   2.0000      -0.355633        -9.6773
  32   2.0000      -0.334342        -9.0979
  33   2.0000      -0.331005        -9.0071
  34   2.0000      -0.323833        -8.8119
  35   2.0000      -0.318220        -8.6592
  36   2.0000      -0.295156        -8.0316
  37   2.0000      -0.285187        -7.7603
  38   2.0000      -0.278116        -7.5679
  39   2.0000      -0.238771        -6.4973
  40   2.0000      -0.225611        -6.1392
  41   2.0000      -0.215258        -5.8575
  42   0.0000      -0.010652        -0.2898
  43   0.0000      -0.002446        -0.0666
  44   0.0000       0.069928         1.9028
  45   0.0000       0.091718         2.4958
  46   0.0000       0.102301         2.7837

MULLIKEN ATOMIC CHARGES
-----------------------
   0 C :   -0.576917
   1 C :    0.055799
   2 C :   -0.232627
   3 C :   -0.353121
   4 C :   -0.006730
   5 H :    0.189069
   6 C :   -0.393613
   7 C :    0.005747
   8 H :    0.167605
   9 O :   -0.496492
  10 C :    0.043336
  11 C :   -0.463378
  12 C :   -0.572738
  13 H :    0.171457
  14 H :    0.167174
  15 H :    0.176063
  16 H :    0.176114
  17 H :    0.170950
  18 H :    0.190721
  19 H :    0.183446
  20 H :    0.179766
  21 H :    0.354727
  22 H :    0.162864
  23 H :    0.164897
  24 H :    0.183962
  25 H :    0.167169
  26 H :    0.184752
Sum of atomic charges:    0.0000000

LOEWDIN ATOMIC CHARGES
----------------------
   0 C :   -0.395858
   1 C :   -0.117238
   2 C :   -0.188035
   3 C :   -0.267823
   4 C :   -0.197923
   5 H :    0.174987
   6 C :   -0.253870
   7 C :    0.075573
   8 H :    0.196250
   9 O :   -0.632924
  10 C :   -0.119975
  11 C :   -0.350982
  12 C :   -0.400959
  13 H :    0.167393
  14 H :    0.162934
  15 H :    0.167217
  16 H :    0.171850
  17 H :    0.171483
  18 H :    0.175974
  19 H :    0.174160
  20 H :    0.176501
  21 H :    0.283838
  22 H :    0.161387
  23 H :    0.163270
  24 H :    0.171212
  25 H :    0.164155
  26 H :    0.167402

  Mayer bond orders larger than 0.100000
B(  0-C ,  1-C ) :   0.8323 B(  0-C , 13-H ) :   0.9702 B(  0-C , 14-H ) :   0.9913
B(  0-C , 15-H ) :   0.9653 B(  1-C ,  2-C ) :   1.8413 B(  1-C ,  7-C ) :   0.9200
B(  2-C ,  3-C ) :   0.9074 B(  2-C , 16-H ) :   0.9298 B(  3-C ,  4-C ) :   0.9075
B(  3-C , 17-H ) :   0.9590 B(  3-C , 18-H ) :   0.9809 B(  4-C ,  5-H ) :   0.9979
B(  4-C ,  6-C ) :   0.8198 B(  4-C , 10-C ) :   0.8551 B(  6-C ,  7-C ) :   0.9343
B(  6-C , 19-H ) :   0.9801 B(  6-C , 20-H ) :   0.9757 B(  7-C ,  8-H ) :   0.9779
B(  7-C ,  9-O ) :   0.9202 B(  9-O , 21-H ) :   0.8615 B( 10-C , 11-C ) :   1.8576
B( 10-C , 12-C ) :   0.8818 B( 11-C , 22-H ) :   0.9709 B( 11-C , 23-H ) :   0.9859
B( 12-C , 24-H ) :   0.9584 B( 12-C , 25-H ) :   0.9765 B( 12-C , 26-H ) :   0.9723

Dispersion correction           -0.009625694
FINAL SINGLE POINT ENERGY      -465.766735086423

DIPOLE MOMENT
-------------

Method             : SCF
Type of density    : Electron Density
Multiplicity       :   1
Irrep              :   0
Energy             :  -465.7688144127839109 Eh
Relativity type    :
Basis              : AO
                                X                 Y                 Z
Electronic contribution:     -2.451901364      -1.771842012      -1.690477850
Nuclear contribution   :      2.793024994       2.549652930       1.917774530
                        -----------------------------------------
Total Dipole Moment    :      0.341123630       0.777810918       0.227296679
                        -----------------------------------------
Magnitude (a.u.)       :      0.879214954
Magnitude (Debye)      :      2.234786811

Rotational constants in cm-1:             0.071266             0.022293             0.020184
Rotational constants in MHz :          2136.495530           668.334868           605.089586

                             ****ORCA TERMINATED NORMALLY****
TOTAL RUN TIME: 0 days 0 hours 0 minutes 56 seconds 712 msec
