                         Program Version 6.0.0  -   RELEASE  -
|  1> ! r2scan-3c def2/J RI DEFGRID2 scfconv6 printgap
|  2> %output
|  3>     printlevel normal
|  4> end
|  5> %cpcm
|  6>     smd true
|  7>     smdsolvent "water"
|  8> end
|  9> * xyz 0 1
| 10> C -1.7462931381 1.0757361489 -0.0282254072
| 11> C -0.8869653643 -0.1540177275 -0.0408612054
| 12> O -1.377688298 -1.2672061664 -0.0422360811
| 13> C 0.62573256 0.0478552745 -0.0091361374
| 14> C 0.9996365166 0.1980598475 1.4755115827
| 15> C 1.071289124 1.2878993327 -0.7857635051
| 16> C 1.3144855847 -1.194901766 -0.5802034665
| 17> H -1.6713292049 1.5691036762 -0.9944280679
| 18> H -2.7813242347 0.7940909641 0.1468393197
| 19> H -1.4143100447 1.7713702116 0.7360172461
| 20> H 0.54809969 1.0882099509 1.9052989019
| 21> H 0.6633003808 -0.6693183913 2.0396622471
| 22> H 2.0794300644 0.2765975496 1.5709890979
| 23> H 2.1571680433 1.3424696197 -0.7762837832
| 24> H 0.6837936688 2.1996859309 -0.3427362937
| 25> H 0.7442518658 1.2297164401 -1.8211795792
| 26> H 0.9643608969 -2.0879283425 -0.0678866937
| 27> H 2.3916519988 -1.1190030722 -0.4610222006
| 28> H 1.084262985 -1.3021300913 -1.6380729691
| 29> *
| 30>
| 31>                          ****END OF INPUT****

CARTESIAN COORDINATES (ANGSTROEM)
---------------------------------
  C     -1.746293    1.075736   -0.028225
  C     -0.886965   -0.154018   -0.040861
  O     -1.377688   -1.267206   -0.042236
  C      0.625733    0.047855   -0.009136
  C      0.999637    0.198060    1.475512
  C      1.071289    1.287899   -0.785764
  C      1.314486   -1.194902   -0.580203
  H     -1.671329    1.569104   -0.994428
  H     -2.781324    0.794091    0.146839
  H     -1.414310    1.771370    0.736017
  H      0.548100    1.088210    1.905299
  H      0.663300   -0.669318    2.039662
  H      2.079430    0.276598    1.570989
  H      2.157168    1.342470   -0.776284
  H      0.683794    2.199686   -0.342736
  H      0.744252    1.229716   -1.821180
  H      0.964361   -2.087928   -0.067887
  H      2.391652   -1.119003   -0.461022
  H      1.084263   -1.302130   -1.638073

 Total Charge           Charge          ....    0
 Multiplicity           Mult            ....    1
 Number of Electrons    NEL             ....   56
 Basis Dimension        Dim             ....  198

ORBITAL ENERGIES
----------------

  NO   OCC          E(Eh)            E(eV)
   0   2.0000     -18.944694      -515.5113
   1   2.0000     -10.121486      -275.4196
   2   2.0000     -10.046759      -273.3862
   3   2.0000     -10.021778      -272.7065
   4   2.0000     -10.017877      -272.6003
   5   2.0000     -10.013201      -272.4731
   6   2.0000     -10.009886      -272.3828
   7   2.0000      -1.013844       -27.5881
   8   2.0000      -0.786979       -21.4148
   9   2.0000      -0.704043       -19.1580
  10   2.0000      -0.652337       -17.7510
  11   2.0000      -0.645628       -17.5684
  12   2.0000      -0.572735       -15.5849
  13   2.0000      -0.470892       -12.8136
  14   2.0000      -0.445179       -12.1139
  15   2.0000      -0.423843       -11.5334
  16   2.0000      -0.421183       -11.4610
  17   2.0000      -0.391328       -10.6486
  18   2.0000      -0.389212       -10.5910
  19   2.0000      -0.367662       -10.0046
  20   2.0000      -0.352248        -9.5852
  21   2.0000      -0.346990        -9.4421
  22   2.0000      -0.330497        -8.9933
  23   2.0000      -0.329882        -8.9765
  24   2.0000      -0.319072        -8.6824
  25   2.0000      -0.297227        -8.0880
  26   2.0000      -0.294113        -8.0032
  27   2.0000      -0.219005        -5.9594
  28   0.0000      -0.047131        -1.2825
  29   0.0000       0.076534         2.0826
  30   0.0000       0.119951         3.2640
  31   0.0000       0.132108         3.5948
  32   0.0000       0.136639         3.7181

MULLIKEN ATOMIC CHARGES
-----------------------
   0 C :   -0.568286
   1 C :    0.308514
   2 O :   -0.451947
   3 C :    0.200418
   4 C :   -0.541414
   5 C :   -0.533870
   6 C :   -0.573505
   7 H :    0.204251
   8 H :    0.179542
   9 H :    0.202903
  10 H :    0.178945
  11 H :    0.173685
  12 H :    0.177709
  13 H :    0.173717
  14 H :    0.172629
  15 H :    0.180258
  16 H :    0.171384
  17 H :    0.173203
  18 H :    0.171862
Sum of atomic charges:    0.0000000

LOEWDIN ATOMIC CHARGES
----------------------
   0 C :   -0.377381
   1 C :    0.246277
   2 O :   -0.545132
   3 C :   -0.185319
   4 C :   -0.383050
   5 C :   -0.398989
   6 C :   -0.395663
   7 H :    0.191458
   8 H :    0.174990
   9 H :    0.184570
  10 H :    0.165046
  11 H :    0.166198
  12 H :    0.167405
  13 H :    0.165608
  14 H :    0.164528
  15 H :    0.165069
  16 H :    0.168322
  17 H :    0.161956
  18 H :    0.164109

  Mayer bond orders larger than 0.100000
B(  0-C ,  1-C ) :   0.9282 B(  0-C ,  7-H ) :   0.9266 B(  0-C ,  8-H ) :   0.9811
B(  0-C ,  9-H ) :   0.9465 B(  1-C ,  2-O ) :   1.8618 B(  1-C ,  3-C ) :   0.8489
B(  3-C ,  4-C ) :   0.9114 B(  3-C ,  5-C ) :   0.8657 B(  3-C ,  6-C ) :   0.9056
B(  4-C , 10-H ) :   0.9644 B(  4-C , 11-H ) :   0.9623 B(  4-C , 12-H ) :   0.9661
B(  5-C , 13-H ) :   0.9663 B(  5-C , 14-H ) :   0.9568 B(  5-C , 15-H ) :   0.9786
B(  6-C , 16-H ) :   0.9714 B(  6-C , 17-H ) :   0.9745 B(  6-C , 18-H ) :   0.9744

Dispersion correction           -0.005433966
FINAL SINGLE POINT ENERGY      -311.011606500786

DIPOLE MOMENT
-------------

Method             : SCF
Type of density    : Electron Density
Multiplicity       :   1
Irrep              :   0
Energy             :  -311.0155444895636947 Eh
Relativity type    :
Basis              : AO
                                X                 Y                 Z
Electronic contribution:     -4.354190661      -3.187000585      -0.223635136
Nuclear contribution   :      5.091958990       4.759149858       0.278193539
                        -----------------------------------------
Total Dipole Moment    :      0.737768329       1.572149273       0.054558403
                        -----------------------------------------
Magnitude (a.u.)       :      1.737507428
Magnitude (Debye)      :      4.416392906

Rotational constants in cm-1:             0.106966             0.078191             0.064822
Rotational constants in MHz :          3206.762087          2344.109726          1943.302799

                             ****ORCA TERMINATED NORMALLY****
TOTAL RUN TIME: 0 days 0 hours 0 minutes 41 seconds 51 msec
