                         Program Version 6.0.0  -   RELEASE  -
|  1> ! r2scan-3c def2/J RI DEFGRID2 scfconv6 printgap
|  2> %output
|  3>     printlevel normal
|  4> end
|  5> * xyz 0 1
|  6> C 0.4107331469 1.7143001725 -0.155583831
|  7> C 0.4484556763 0.2798233113 0.3298732826
|  8> H 0.3066121647 0.2243390368 1.4110208389
|  9> C -0.543303752 -0.6233049537 -0.382930105
| 10> Cl -2.2140141862 -0.1688974482 0.0759931342
| 11> Cl 2.0896067036 -0.4160947264 0.0221080037
| 12> H 0.6187651121 1.7613861305 -1.2212913207
| 13> H -0.5785845112 2.1247829594 0.0304849384
| 14> H 1.1458494955 2.3131595119 0.3738111011
| 15> H -0.4686085708 -0.5172739837 -1.4641421608
| 16> H -0.4122928227 -1.6649223987 -0.0942711651
| 17> *
| 18>
| 19>                          ****END OF INPUT****

CARTESIAN COORDINATES (ANGSTROEM)
---------------------------------
  C      0.410733    1.714300   -0.155584
  C      0.448456    0.279823    0.329873
  H      0.306612    0.224339    1.411021
  C     -0.543304   -0.623305   -0.382930
  Cl    -2.214014   -0.168897    0.075993
  Cl     2.089607   -0.416095    0.022108
  H      0.618765    1.761386   -1.221291
  H     -0.578585    2.124783    0.030485
  H      1.145849    2.313160    0.373811
  H     -0.468609   -0.517274   -1.464142
  H     -0.412293   -1.664922   -0.094271

 Total Charge           Charge          ....    0
 Multiplicity           Mult            ....    1
 Number of Electrons    NEL             ....   58
 Basis Dimension        Dim             ....  141

ORBITAL ENERGIES
----------------

  NO   OCC          E(Eh)            E(eV)
   0   2.0000    -101.215745     -2754.2204
   1   2.0000    -101.212172     -2754.1232
   2   2.0000     -10.117892      -275.3218
   3   2.0000     -10.108963      -275.0789
   4   2.0000     -10.042096      -273.2593
   5   2.0000      -9.371717      -255.0174
   6   2.0000      -9.368158      -254.9205
   7   2.0000      -7.118013      -193.6910
   8   2.0000      -7.114315      -193.5904
   9   2.0000      -7.107828      -193.4138
  10   2.0000      -7.107600      -193.4076
  11   2.0000      -7.104364      -193.3196
  12   2.0000      -7.104132      -193.3132
  13   2.0000      -0.860092       -23.4043
  14   2.0000      -0.811910       -22.0932
  15   2.0000      -0.721103       -19.6222
  16   2.0000      -0.663447       -18.0533
  17   2.0000      -0.570356       -15.5202
  18   2.0000      -0.470609       -12.8059
  19   2.0000      -0.448573       -12.2063
  20   2.0000      -0.429278       -11.6812
  21   2.0000      -0.397452       -10.8152
  22   2.0000      -0.370228       -10.0744
  23   2.0000      -0.359427        -9.7805
  24   2.0000      -0.349726        -9.5165
  25   2.0000      -0.292877        -7.9696
  26   2.0000      -0.279185        -7.5970
  27   2.0000      -0.278687        -7.5835
  28   2.0000      -0.273848        -7.4518
  29   0.0000      -0.023661        -0.6439
  30   0.0000       0.015218         0.4141
  31   0.0000       0.089993         2.4488
  32   0.0000       0.107196         2.9170
  33   0.0000       0.114220         3.1081

MULLIKEN ATOMIC CHARGES
-----------------------
   0 C :   -0.468704
   1 C :    0.024637
   2 H :    0.177574
   3 C :   -0.178423
   4 Cl:   -0.190094
   5 Cl:   -0.199142
   6 H :    0.156797
   7 H :    0.166772
   8 H :    0.162757
   9 H :    0.167781
  10 H :    0.180044
Sum of atomic charges:    0.0000000

LOEWDIN ATOMIC CHARGES
----------------------
   0 C :   -0.428083
   1 C :   -0.280970
   2 H :    0.167504
   3 C :   -0.338967
   4 Cl:    0.019482
   5 Cl:    0.033553
   6 H :    0.162042
   7 H :    0.167694
   8 H :    0.163317
   9 H :    0.166779
  10 H :    0.167649

  Mayer bond orders larger than 0.100000
B(  0-C ,  1-C ) :   0.9360 B(  0-C ,  6-H ) :   0.9738 B(  0-C ,  7-H ) :   0.9512
B(  0-C ,  8-H ) :   0.9642 B(  1-C ,  2-H ) :   0.9383 B(  1-C ,  3-C ) :   0.9316
B(  1-C ,  5-Cl) :   0.9233 B(  3-C ,  4-Cl) :   0.9571 B(  3-C ,  9-H ) :   0.9585
B(  3-C , 10-H ) :   0.9487

Dispersion correction           -0.002977686
FINAL SINGLE POINT ENERGY     -1038.253672299626

DIPOLE MOMENT
-------------

Method             : SCF
Type of density    : Electron Density
Multiplicity       :   1
Irrep              :   0
Energy             : -1038.2603146628227933 Eh
Relativity type    :
Basis              : AO
                                X                 Y                 Z
Electronic contribution:     -0.748779409      -4.530379408       0.972607258
Nuclear contribution   :      0.740898588       4.764414123      -1.036435173
                        -----------------------------------------
Total Dipole Moment    :     -0.007880821       0.234034716      -0.063827915
                        -----------------------------------------
Magnitude (a.u.)       :      0.242710441
Magnitude (Debye)      :      0.616920914

Rotational constants in cm-1:             0.228908             0.048370             0.041794
Rotational constants in MHz :          6862.481181          1450.097432          1252.949274

                             ****ORCA TERMINATED NORMALLY****
TOTAL RUN TIME: 0 days 0 hours 0 minutes 15 seconds 129 msec
