                         Program Version 6.0.0  -   RELEASE  -
|  1> ! r2scan-3c def2/J RI DEFGRID2 scfconv6 printgap
|  2> %output
|  3>     printlevel normal
|  4> end
|  5> %cpcm
|  6>     smd true
|  7>     smdsolvent "water"
|  8> end
|  9> * xyz 0 1
| 10> C 0.4107331469 1.7143001725 -0.155583831
| 11> C 0.4484556763 0.2798233113 0.3298732826
| 12> H 0.3066121647 0.2243390368 1.4110208389
| 13> C -0.543303752 -0.6233049537 -0.382930105
| 14> Cl -2.2140141862 -0.1688974482 0.0759931342
| 15> Cl 2.0896067036 -0.4160947264 0.0221080037
| 16> H 0.6187651121 1.7613861305 -1.2212913207
| 17> H -0.5785845112 2.1247829594 0.0304849384
| 18> H 1.1458494955 2.3131595119 0.3738111011
| 19> H -0.4686085708 -0.5172739837 -1.4641421608
| 20> H -0.4122928227 -1.6649223987 -0.0942711651
| 21> *
| 22>
| 23>                          ****END OF INPUT****

CARTESIAN COORDINATES (ANGSTROEM)
---------------------------------
  C      0.410733    1.714300   -0.155584
  C      0.448456    0.279823    0.329873
  H      0.306612    0.224339    1.411021
  C     -0.543304   -0.623305   -0.382930
  Cl    -2.214014   -0.168897    0.075993
  Cl     2.089607   -0.416095    0.022108
  H      0.618765    1.761386   -1.221291
  H     -0.578585    2.124783    0.030485
  H      1.145849    2.313160    0.373811
  H     -0.468609   -0.517274   -1.464142
  H     -0.412293   -1.664922   -0.094271

 Total Charge           Charge          ....    0
 Multiplicity           Mult            ....    1
 Number of Electrons    NEL             ....   58
 Basis Dimension        Dim             ....  141

ORBITAL ENERGIES
----------------

  NO   OCC          E(Eh)            E(eV)
   0   2.0000    -101.210267     -2754.0714
   1   2.0000    -101.207441     -2753.9945
   2   2.0000     -10.104216      -274.9497
   3   2.0000     -10.093452      -274.6568
   4   2.0000     -10.024490      -272.7802
   5   2.0000      -9.366397      -254.8726
   6   2.0000      -9.363634      -254.7974
   7   2.0000      -7.112457      -193.5398
   8   2.0000      -7.109539      -193.4604
   9   2.0000      -7.102608      -193.2718
  10   2.0000      -7.102396      -193.2660
  11   2.0000      -7.099943      -193.1993
  12   2.0000      -7.099727      -193.1934
  13   2.0000      -0.849862       -23.1259
  14   2.0000      -0.805352       -21.9147
  15   2.0000      -0.709705       -19.3121
  16   2.0000      -0.649731       -17.6801
  17   2.0000      -0.555154       -15.1065
  18   2.0000      -0.455037       -12.3822
  19   2.0000      -0.437753       -11.9119
  20   2.0000      -0.415261       -11.2998
  21   2.0000      -0.384519       -10.4633
  22   2.0000      -0.357551        -9.7295
  23   2.0000      -0.343193        -9.3387
  24   2.0000      -0.336181        -9.1479
  25   2.0000      -0.288578        -7.8526
  26   2.0000      -0.273962        -7.4549
  27   2.0000      -0.272360        -7.4113
  28   2.0000      -0.268469        -7.3054
  29   0.0000      -0.016487        -0.4486
  30   0.0000       0.024989         0.6800
  31   0.0000       0.105429         2.8689
  32   0.0000       0.122211         3.3255
  33   0.0000       0.130996         3.5646

MULLIKEN ATOMIC CHARGES
-----------------------
   0 C :   -0.503018
   1 C :    0.034763
   2 H :    0.205340
   3 C :   -0.197187
   4 Cl:   -0.225899
   5 Cl:   -0.238732
   6 H :    0.175383
   7 H :    0.172375
   8 H :    0.176416
   9 H :    0.198502
  10 H :    0.202056
Sum of atomic charges:   -0.0000000

LOEWDIN ATOMIC CHARGES
----------------------
   0 C :   -0.431846
   1 C :   -0.275066
   2 H :    0.176637
   3 C :   -0.335332
   4 Cl:   -0.001435
   5 Cl:    0.010298
   6 H :    0.166755
   7 H :    0.170392
   8 H :    0.166872
   9 H :    0.177249
  10 H :    0.175477

  Mayer bond orders larger than 0.100000
B(  0-C ,  1-C ) :   0.9250 B(  0-C ,  6-H ) :   0.9702 B(  0-C ,  7-H ) :   0.9487
B(  0-C ,  8-H ) :   0.9614 B(  1-C ,  2-H ) :   0.9364 B(  1-C ,  3-C ) :   0.9222
B(  1-C ,  5-Cl) :   0.8853 B(  3-C ,  4-Cl) :   0.9336 B(  3-C ,  9-H ) :   0.9517
B(  3-C , 10-H ) :   0.9437

Dispersion correction           -0.002977686
FINAL SINGLE POINT ENERGY     -1038.257016622645

DIPOLE MOMENT
-------------

Method             : SCF
Type of density    : Electron Density
Multiplicity       :   1
Irrep              :   0
Energy             : -1038.2636589858414027 Eh
Relativity type    :
Basis              : AO
                                X                 Y                 Z
Electronic contribution:     -0.758004635      -4.496349998       0.953094591
Nuclear contribution   :      0.740898588       4.764414123      -1.036435173
                        -----------------------------------------
Total Dipole Moment    :     -0.017106047       0.268064125      -0.083340582
                        -----------------------------------------
Magnitude (a.u.)       :      0.281241257
Magnitude (Debye)      :      0.714858464

Rotational constants in cm-1:             0.228908             0.048370             0.041794
Rotational constants in MHz :          6862.481181          1450.097432          1252.949274

                             ****ORCA TERMINATED NORMALLY****
TOTAL RUN TIME: 0 days 0 hours 0 minutes 18 seconds 66 msec
