                         Program Version 6.0.0  -   RELEASE  -
|  1> ! pbe def2-sv(p) def2/J RI DEFGRID1 loosescf d4 GCP(DFT/SV(P)) printgap
|  2> %output
|  3>     printlevel normal
|  4> end
|  5> * xyz 0 1
|  6> C -2.3428519525 4.35649e-05 0.000611246
|  7> C -1.6500306606 -1.1991457615 0.0003576888
|  8> C -0.2649739167 -1.2070542185 -0.0005919668
|  9> C 0.4120497473 -1.4162e-05 -0.0011707862
| 10> C -0.2649932048 1.2070066792 -0.0004164629
| 11> C -1.6499846079 1.1991378141 -0.0003087739
| 12> Cl 2.157011794 9.1349e-06 0.0003877016
| 13> H -3.4214129435 0.0001068053 0.0003946485
| 14> H -2.1847711937 -2.1358183179 -0.0001808614
| 15> H 0.2835461936 -2.1352215636 0.0005775279
| 16> H 0.2834940353 2.1351557263 -3.3819e-06
| 17> H -2.1846360032 2.1357668583 0.0036764244
| 18> *
| 19>
| 20>                          ****END OF INPUT****

CARTESIAN COORDINATES (ANGSTROEM)
---------------------------------
  C     -2.342852    0.000044    0.000611
  C     -1.650031   -1.199146    0.000358
  C     -0.264974   -1.207054   -0.000592
  C      0.412050   -0.000014   -0.001171
  C     -0.264993    1.207007   -0.000416
  C     -1.649985    1.199138   -0.000309
  Cl     2.157012    0.000009    0.000388
  H     -3.421413    0.000107    0.000395
  H     -2.184771   -2.135818   -0.000181
  H      0.283546   -2.135222    0.000578
  H      0.283494    2.135156   -0.000003
  H     -2.184636    2.135767    0.003676

 Total Charge           Charge          ....    0
 Multiplicity           Mult            ....    1
 Number of Electrons    NEL             ....   58
 Basis Dimension        Dim             ....  112

ORBITAL ENERGIES
----------------

  NO   OCC          E(Eh)            E(eV)
   0   2.0000    -100.637736     -2738.4920
   1   2.0000      -9.953102      -270.8377
   2   2.0000      -9.905169      -269.5334
   3   2.0000      -9.905142      -269.5326
   4   2.0000      -9.903967      -269.5007
   5   2.0000      -9.903947      -269.5001
   6   2.0000      -9.901868      -269.4435
   7   2.0000      -9.173619      -249.6269
   8   2.0000      -7.004927      -190.6138
   9   2.0000      -6.993647      -190.3068
  10   2.0000      -6.993047      -190.2905
  11   2.0000      -0.812758       -22.1163
  12   2.0000      -0.760760       -20.7013
  13   2.0000      -0.684542       -18.6273
  14   2.0000      -0.660947       -17.9853
  15   2.0000      -0.558069       -15.1858
  16   2.0000      -0.540547       -14.7090
  17   2.0000      -0.479316       -13.0428
  18   2.0000      -0.423367       -11.5204
  19   2.0000      -0.416744       -11.3402
  20   2.0000      -0.389344       -10.5946
  21   2.0000      -0.389161       -10.5896
  22   2.0000      -0.359549        -9.7838
  23   2.0000      -0.321970        -8.7612
  24   2.0000      -0.319664        -8.6985
  25   2.0000      -0.296216        -8.0604
  26   2.0000      -0.266305        -7.2465
  27   2.0000      -0.242015        -6.5856
  28   2.0000      -0.220490        -5.9998
  29   0.0000      -0.046570        -1.2672
  30   0.0000      -0.043932        -1.1954
  31   0.0000       0.006618         0.1801
  32   0.0000       0.058268         1.5855
  33   0.0000       0.074917         2.0386

MULLIKEN ATOMIC CHARGES
-----------------------
   0 C :   -0.035942
   1 C :   -0.065123
   2 C :   -0.064628
   3 C :    0.097261
   4 C :   -0.064603
   5 C :   -0.065090
   6 Cl:   -0.091608
   7 H :    0.058668
   8 H :    0.062571
   9 H :    0.052991
  10 H :    0.052969
  11 H :    0.062533
Sum of atomic charges:   -0.0000000

LOEWDIN ATOMIC CHARGES
----------------------
   0 C :   -0.127852
   1 C :   -0.114864
   2 C :   -0.138909
   3 C :   -0.125466
   4 C :   -0.138910
   5 C :   -0.114879
   6 Cl:    0.115534
   7 H :    0.126604
   8 H :    0.128328
   9 H :    0.131043
  10 H :    0.131042
  11 H :    0.128330

  Mayer bond orders larger than 0.100000
B(  0-C ,  1-C ) :   1.3804 B(  0-C ,  5-C ) :   1.3804 B(  0-C ,  7-H ) :   0.9662
B(  1-C ,  2-C ) :   1.3714 B(  1-C ,  8-H ) :   0.9609 B(  2-C ,  3-C ) :   1.3979
B(  2-C ,  9-H ) :   0.9644 B(  3-C ,  4-C ) :   1.3979 B(  3-C ,  6-Cl) :   0.9659
B(  4-C ,  5-C ) :   1.3714 B(  4-C , 10-H ) :   0.9644 B(  5-C , 11-H ) :   0.9609

Dispersion correction           -0.013062789
FINAL SINGLE POINT ENERGY      -691.004944301642

DIPOLE MOMENT
-------------

Method             : SCF
Type of density    : Electron Density
Multiplicity       :   1
Irrep              :   0
Energy             :  -691.0334254178823130 Eh
Relativity type    :
Basis              : AO
                                X                 Y                 Z
Electronic contribution:      9.101764701       0.000037765      -0.002656993
Nuclear contribution   :     -9.672283253      -0.000022104       0.003667982
                        -----------------------------------------
Total Dipole Moment    :     -0.570518552       0.000015662       0.001010989
                        -----------------------------------------
Magnitude (a.u.)       :      0.570519448
Magnitude (Debye)      :      1.450145191

Rotational constants in cm-1:             0.191722             0.052420             0.041165
Rotational constants in MHz :          5747.672663          1571.499645          1234.083220

                             ****ORCA TERMINATED NORMALLY****
TOTAL RUN TIME: 0 days 0 hours 0 minutes 6 seconds 118 msec
