                         Program Version 6.0.0  -   RELEASE  -
|  1> ! r2scan-3c def2/J RI DEFGRID2 scfconv6 printgap
|  2> %output
|  3>     printlevel normal
|  4> end
|  5> * xyz 0 1
|  6> C 3.2505132595 -0.5225733889 0.7800082382
|  7> C 1.899149278 -0.3145612923 0.1909330359
|  8> C 1.304042755 0.8889552219 0.1777060612
|  9> C -0.0250371965 1.135060562 -0.3483202548
| 10> O -0.5159493905 2.2621549243 -0.3631566146
| 11> C -0.8015883178 -0.064667332 -0.8519703952
| 12> H -1.4173377211 0.2874177015 -1.6871781012
| 13> C 0.1482332587 -1.137659047 -1.3869735553
| 14> C 1.2331279557 -1.520852315 -0.3875478313
| 15> C -1.7860341084 -0.5653690729 0.2416974297
| 16> C -1.2773518025 -0.3785167933 1.6716273111
| 17> C -3.1210437201 0.1640698206 0.0944186616
| 18> H 3.2312581094 -1.3622471877 1.4720170977
| 19> H 3.5985960796 0.3653409323 1.2992164134
| 20> H 3.9595554514 -0.7680831921 -0.0095491017
| 21> H 1.8043358555 1.757766382 0.5844858611
| 22> H -0.4263417627 -2.0191764174 -1.6754479121
| 23> H 0.6274503184 -0.7430159541 -2.2866980922
| 24> H 0.8037901123 -2.1101564186 0.427029017
| 25> H 1.9796697627 -2.1514135112 -0.8739350127
| 26> H -1.9526928079 -1.6339842068 0.0680683446
| 27> H -1.9950089849 -0.8035791119 2.3700747709
| 28> H -1.1716241356 0.6808397083 1.8998736044
| 29> H -0.3179449789 -0.8581774592 1.8336240528
| 30> H -3.8107433291 -0.1388300672 0.8786732729
| 31> H -3.5785412808 -0.0503503901 -0.8687340975
| 32> H -2.9638678422 1.2390068631 0.1693789414
| 33> *
| 34>
| 35>                          ****END OF INPUT****

CARTESIAN COORDINATES (ANGSTROEM)
---------------------------------
  C      3.250513   -0.522573    0.780008
  C      1.899149   -0.314561    0.190933
  C      1.304043    0.888955    0.177706
  C     -0.025037    1.135061   -0.348320
  O     -0.515949    2.262155   -0.363157
  C     -0.801588   -0.064667   -0.851970
  H     -1.417338    0.287418   -1.687178
  C      0.148233   -1.137659   -1.386974
  C      1.233128   -1.520852   -0.387548
  C     -1.786034   -0.565369    0.241697
  C     -1.277352   -0.378517    1.671627
  C     -3.121044    0.164070    0.094419
  H      3.231258   -1.362247    1.472017
  H      3.598596    0.365341    1.299216
  H      3.959555   -0.768083   -0.009549
  H      1.804336    1.757766    0.584486
  H     -0.426342   -2.019176   -1.675448
  H      0.627450   -0.743016   -2.286698
  H      0.803790   -2.110156    0.427029
  H      1.979670   -2.151414   -0.873935
  H     -1.952693   -1.633984    0.068068
  H     -1.995009   -0.803579    2.370075
  H     -1.171624    0.680840    1.899874
  H     -0.317945   -0.858177    1.833624
  H     -3.810743   -0.138830    0.878673
  H     -3.578541   -0.050350   -0.868734
  H     -2.963868    1.239007    0.169379

 Total Charge           Charge          ....    0
 Multiplicity           Mult            ....    1
 Number of Electrons    NEL             ....   84
 Basis Dimension        Dim             ....  294

ORBITAL ENERGIES
----------------

  NO   OCC          E(Eh)            E(eV)
   0   2.0000     -18.921753      -514.8871
   1   2.0000     -10.103256      -274.9236
   2   2.0000     -10.069421      -274.0029
   3   2.0000     -10.048315      -273.4285
   4   2.0000     -10.042377      -273.2670
   5   2.0000     -10.041959      -273.2556
   6   2.0000     -10.038908      -273.1726
   7   2.0000     -10.035589      -273.0823
   8   2.0000     -10.030297      -272.9383
   9   2.0000     -10.016189      -272.5543
  10   2.0000     -10.010860      -272.4093
  11   2.0000      -0.984261       -26.7831
  12   2.0000      -0.825455       -22.4618
  13   2.0000      -0.778798       -21.1922
  14   2.0000      -0.730975       -19.8908
  15   2.0000      -0.700086       -19.0503
  16   2.0000      -0.667662       -18.1680
  17   2.0000      -0.647213       -17.6116
  18   2.0000      -0.587975       -15.9996
  19   2.0000      -0.557666       -15.1749
  20   2.0000      -0.535100       -14.5608
  21   2.0000      -0.473746       -12.8913
  22   2.0000      -0.455646       -12.3987
  23   2.0000      -0.444946       -12.1076
  24   2.0000      -0.424049       -11.5390
  25   2.0000      -0.417467       -11.3599
  26   2.0000      -0.404782       -11.0147
  27   2.0000      -0.394711       -10.7406
  28   2.0000      -0.385432       -10.4881
  29   2.0000      -0.375408       -10.2154
  30   2.0000      -0.365896        -9.9565
  31   2.0000      -0.359296        -9.7769
  32   2.0000      -0.350700        -9.5430
  33   2.0000      -0.346512        -9.4291
  34   2.0000      -0.339146        -9.2286
  35   2.0000      -0.317541        -8.6407
  36   2.0000      -0.310531        -8.4500
  37   2.0000      -0.302429        -8.2295
  38   2.0000      -0.288074        -7.8389
  39   2.0000      -0.282138        -7.6774
  40   2.0000      -0.242322        -6.5939
  41   2.0000      -0.199983        -5.4418
  42   0.0000      -0.078105        -2.1253
  43   0.0000       0.033891         0.9222
  44   0.0000       0.063924         1.7395
  45   0.0000       0.092530         2.5179
  46   0.0000       0.097684         2.6581

MULLIKEN ATOMIC CHARGES
-----------------------
   0 C :   -0.516141
   1 C :    0.178227
   2 C :   -0.238333
   3 C :    0.130411
   4 O :   -0.341031
   5 C :   -0.035879
   6 H :    0.183216
   7 C :   -0.382052
   8 C :   -0.315006
   9 C :   -0.064685
  10 C :   -0.515533
  11 C :   -0.532962
  12 H :    0.157087
  13 H :    0.160952
  14 H :    0.169771
  15 H :    0.169670
  16 H :    0.163934
  17 H :    0.170888
  18 H :    0.183914
  19 H :    0.161460
  20 H :    0.157177
  21 H :    0.148258
  22 H :    0.177509
  23 H :    0.150843
  24 H :    0.140911
  25 H :    0.143907
  26 H :    0.193488
Sum of atomic charges:   -0.0000000

LOEWDIN ATOMIC CHARGES
----------------------
   0 C :   -0.385403
   1 C :   -0.068197
   2 C :   -0.167634
   3 C :    0.222564
   4 O :   -0.478771
   5 C :   -0.190346
   6 H :    0.186566
   7 C :   -0.272363
   8 C :   -0.279937
   9 C :   -0.213901
  10 C :   -0.402182
  11 C :   -0.409961
  12 H :    0.167418
  13 H :    0.163730
  14 H :    0.170057
  15 H :    0.183608
  16 H :    0.160130
  17 H :    0.165436
  18 H :    0.174686
  19 H :    0.167881
  20 H :    0.156896
  21 H :    0.154115
  22 H :    0.166927
  23 H :    0.154697
  24 H :    0.151023
  25 H :    0.152143
  26 H :    0.170820

  Mayer bond orders larger than 0.100000
B(  0-C ,  1-C ) :   0.8424 B(  0-C , 12-H ) :   0.9621 B(  0-C , 13-H ) :   0.9928
B(  0-C , 14-H ) :   0.9663 B(  1-C ,  2-C ) :   1.6518 B(  1-C ,  8-C ) :   0.8674
B(  2-C ,  3-C ) :   1.0872 B(  2-C , 15-H ) :   0.9350 B(  3-C ,  4-O ) :   1.9432
B(  3-C ,  5-C ) :   0.8913 B(  5-C ,  6-H ) :   0.9849 B(  5-C ,  7-C ) :   0.8513
B(  5-C ,  9-C ) :   0.8179 B(  7-C ,  8-C ) :   0.8906 B(  7-C , 16-H ) :   1.0013
B(  7-C , 17-H ) :   1.0060 B(  8-C , 18-H ) :   0.9621 B(  8-C , 19-H ) :   0.9668
B(  9-C , 10-C ) :   0.8951 B(  9-C , 11-C ) :   0.9195 B(  9-C , 20-H ) :   0.9774
B( 10-C , 21-H ) :   0.9676 B( 10-C , 22-H ) :   0.9696 B( 10-C , 23-H ) :   0.9689
B( 11-C , 24-H ) :   0.9777 B( 11-C , 25-H ) :   0.9742 B( 11-C , 26-H ) :   0.9733

Dispersion correction           -0.010023027
FINAL SINGLE POINT ENERGY      -465.790764987818

DIPOLE MOMENT
-------------

Method             : SCF
Type of density    : Electron Density
Multiplicity       :   1
Irrep              :   0
Energy             :  -465.7922672077820607 Eh
Relativity type    :
Basis              : AO
                                X                 Y                 Z
Electronic contribution:      2.306241825       6.250621405      -3.246020344
Nuclear contribution   :     -1.536343708      -7.761345288       3.372857865
                        -----------------------------------------
Total Dipole Moment    :      0.769898117      -1.510723883       0.126837521
                        -----------------------------------------
Magnitude (a.u.)       :      1.700328650
Magnitude (Debye)      :      4.321891961

Rotational constants in cm-1:             0.058646             0.027610             0.024857
Rotational constants in MHz :          1758.157746           827.729177           745.189917

                             ****ORCA TERMINATED NORMALLY****
TOTAL RUN TIME: 0 days 0 hours 0 minutes 41 seconds 202 msec
