                         Program Version 6.0.0  -   RELEASE  -
|  1> ! r2scan-3c def2/J RI DEFGRID2 scfconv6 printgap
|  2> %output
|  3>     printlevel normal
|  4> end
|  5> %cpcm
|  6>     smd true
|  7>     smdsolvent "water"
|  8> end
|  9> * xyz 0 1
| 10> C 3.2505132595 -0.5225733889 0.7800082382
| 11> C 1.899149278 -0.3145612923 0.1909330359
| 12> C 1.304042755 0.8889552219 0.1777060612
| 13> C -0.0250371965 1.135060562 -0.3483202548
| 14> O -0.5159493905 2.2621549243 -0.3631566146
| 15> C -0.8015883178 -0.064667332 -0.8519703952
| 16> H -1.4173377211 0.2874177015 -1.6871781012
| 17> C 0.1482332587 -1.137659047 -1.3869735553
| 18> C 1.2331279557 -1.520852315 -0.3875478313
| 19> C -1.7860341084 -0.5653690729 0.2416974297
| 20> C -1.2773518025 -0.3785167933 1.6716273111
| 21> C -3.1210437201 0.1640698206 0.0944186616
| 22> H 3.2312581094 -1.3622471877 1.4720170977
| 23> H 3.5985960796 0.3653409323 1.2992164134
| 24> H 3.9595554514 -0.7680831921 -0.0095491017
| 25> H 1.8043358555 1.757766382 0.5844858611
| 26> H -0.4263417627 -2.0191764174 -1.6754479121
| 27> H 0.6274503184 -0.7430159541 -2.2866980922
| 28> H 0.8037901123 -2.1101564186 0.427029017
| 29> H 1.9796697627 -2.1514135112 -0.8739350127
| 30> H -1.9526928079 -1.6339842068 0.0680683446
| 31> H -1.9950089849 -0.8035791119 2.3700747709
| 32> H -1.1716241356 0.6808397083 1.8998736044
| 33> H -0.3179449789 -0.8581774592 1.8336240528
| 34> H -3.8107433291 -0.1388300672 0.8786732729
| 35> H -3.5785412808 -0.0503503901 -0.8687340975
| 36> H -2.9638678422 1.2390068631 0.1693789414
| 37> *
| 38>
| 39>                          ****END OF INPUT****

CARTESIAN COORDINATES (ANGSTROEM)
---------------------------------
  C      3.250513   -0.522573    0.780008
  C      1.899149   -0.314561    0.190933
  C      1.304043    0.888955    0.177706
  C     -0.025037    1.135061   -0.348320
  O     -0.515949    2.262155   -0.363157
  C     -0.801588   -0.064667   -0.851970
  H     -1.417338    0.287418   -1.687178
  C      0.148233   -1.137659   -1.386974
  C      1.233128   -1.520852   -0.387548
  C     -1.786034   -0.565369    0.241697
  C     -1.277352   -0.378517    1.671627
  C     -3.121044    0.164070    0.094419
  H      3.231258   -1.362247    1.472017
  H      3.598596    0.365341    1.299216
  H      3.959555   -0.768083   -0.009549
  H      1.804336    1.757766    0.584486
  H     -0.426342   -2.019176   -1.675448
  H      0.627450   -0.743016   -2.286698
  H      0.803790   -2.110156    0.427029
  H      1.979670   -2.151414   -0.873935
  H     -1.952693   -1.633984    0.068068
  H     -1.995009   -0.803579    2.370075
  H     -1.171624    0.680840    1.899874
  H     -0.317945   -0.858177    1.833624
  H     -3.810743   -0.138830    0.878673
  H     -3.578541   -0.050350   -0.868734
  H     -2.963868    1.239007    0.169379

 Total Charge           Charge          ....    0
 Multiplicity           Mult            ....    1
 Number of Electrons    NEL             ....   84
 Basis Dimension        Dim             ....  294

ORBITAL ENERGIES
----------------

  NO   OCC          E(Eh)            E(eV)
   0   2.0000     -18.937002      -515.3020
   1   2.0000     -10.112934      -275.1869
   2   2.0000     -10.065469      -273.8953
   3   2.0000     -10.035296      -273.0743
   4   2.0000     -10.031162      -272.9618
   5   2.0000     -10.030935      -272.9556
   6   2.0000     -10.025023      -272.7947
   7   2.0000     -10.024676      -272.7853
   8   2.0000     -10.023543      -272.7545
   9   2.0000     -10.008695      -272.3504
  10   2.0000     -10.007865      -272.3278
  11   2.0000      -1.001674       -27.2569
  12   2.0000      -0.816951       -22.2304
  13   2.0000      -0.771721       -20.9996
  14   2.0000      -0.720078       -19.5943
  15   2.0000      -0.693767       -18.8784
  16   2.0000      -0.656391       -17.8613
  17   2.0000      -0.641959       -17.4686
  18   2.0000      -0.578054       -15.7296
  19   2.0000      -0.553973       -15.0744
  20   2.0000      -0.529751       -14.4153
  21   2.0000      -0.464581       -12.6419
  22   2.0000      -0.446324       -12.1451
  23   2.0000      -0.438295       -11.9266
  24   2.0000      -0.421424       -11.4675
  25   2.0000      -0.417491       -11.3605
  26   2.0000      -0.395408       -10.7596
  27   2.0000      -0.385147       -10.4804
  28   2.0000      -0.377480       -10.2717
  29   2.0000      -0.369092       -10.0435
  30   2.0000      -0.358601        -9.7580
  31   2.0000      -0.354292        -9.6408
  32   2.0000      -0.343743        -9.3537
  33   2.0000      -0.341233        -9.2854
  34   2.0000      -0.337544        -9.1851
  35   2.0000      -0.309688        -8.4271
  36   2.0000      -0.302558        -8.2330
  37   2.0000      -0.298442        -8.1210
  38   2.0000      -0.281355        -7.6561
  39   2.0000      -0.274403        -7.4669
  40   2.0000      -0.240246        -6.5374
  41   2.0000      -0.215201        -5.8559
  42   0.0000      -0.079616        -2.1665
  43   0.0000       0.034803         0.9470
  44   0.0000       0.078554         2.1376
  45   0.0000       0.106174         2.8892
  46   0.0000       0.107816         2.9338

MULLIKEN ATOMIC CHARGES
-----------------------
   0 C :   -0.551810
   1 C :    0.203426
   2 C :   -0.314478
   3 C :    0.178819
   4 O :   -0.457708
   5 C :   -0.046906
   6 H :    0.191568
   7 C :   -0.391036
   8 C :   -0.325059
   9 C :   -0.030301
  10 C :   -0.560501
  11 C :   -0.573672
  12 H :    0.181773
  13 H :    0.175505
  14 H :    0.193573
  15 H :    0.188450
  16 H :    0.178511
  17 H :    0.182340
  18 H :    0.210112
  19 H :    0.184652
  20 H :    0.176557
  21 H :    0.162969
  22 H :    0.171877
  23 H :    0.174903
  24 H :    0.158051
  25 H :    0.162634
  26 H :    0.175751
Sum of atomic charges:   -0.0000000

LOEWDIN ATOMIC CHARGES
----------------------
   0 C :   -0.386893
   1 C :   -0.033373
   2 C :   -0.194629
   3 C :    0.227500
   4 O :   -0.571718
   5 C :   -0.188565
   6 H :    0.188671
   7 C :   -0.269494
   8 C :   -0.275949
   9 C :   -0.209367
  10 C :   -0.408168
  11 C :   -0.417813
  12 H :    0.178654
  13 H :    0.167798
  14 H :    0.181603
  15 H :    0.187708
  16 H :    0.167118
  17 H :    0.168535
  18 H :    0.186792
  19 H :    0.178750
  20 H :    0.166110
  21 H :    0.158479
  22 H :    0.162426
  23 H :    0.161537
  24 H :    0.155921
  25 H :    0.156854
  26 H :    0.161509

  Mayer bond orders larger than 0.100000
B(  0-C ,  1-C ) :   0.8488 B(  0-C , 12-H ) :   0.9528 B(  0-C , 13-H ) :   0.9893
B(  0-C , 14-H ) :   0.9523 B(  1-C ,  2-C ) :   1.6369 B(  1-C ,  8-C ) :   0.8735
B(  2-C ,  3-C ) :   1.0834 B(  2-C , 15-H ) :   0.9324 B(  3-C ,  4-O ) :   1.8548
B(  3-C ,  5-C ) :   0.9031 B(  5-C ,  6-H ) :   0.9818 B(  5-C ,  7-C ) :   0.8475
B(  5-C ,  9-C ) :   0.8149 B(  7-C ,  8-C ) :   0.8732 B(  7-C , 16-H ) :   0.9931
B(  7-C , 17-H ) :   1.0071 B(  8-C , 18-H ) :   0.9563 B(  8-C , 19-H ) :   0.9584
B(  9-C , 10-C ) :   0.8780 B(  9-C , 11-C ) :   0.8979 B(  9-C , 20-H ) :   0.9672
B( 10-C , 21-H ) :   0.9640 B( 10-C , 22-H ) :   0.9688 B( 10-C , 23-H ) :   0.9670
B( 11-C , 24-H ) :   0.9746 B( 11-C , 25-H ) :   0.9721 B( 11-C , 26-H ) :   0.9809

Dispersion correction           -0.010023027
FINAL SINGLE POINT ENERGY      -465.799678279025

DIPOLE MOMENT
-------------

Method             : SCF
Type of density    : Electron Density
Multiplicity       :   1
Irrep              :   0
Energy             :  -465.8011804989889697 Eh
Relativity type    :
Basis              : AO
                                X                 Y                 Z
Electronic contribution:      2.750310654       5.272568346      -3.183406238
Nuclear contribution   :     -1.536343708      -7.761345288       3.372857865
                        -----------------------------------------
Total Dipole Moment    :      1.213966946      -2.488776942       0.189451627
                        -----------------------------------------
Magnitude (a.u.)       :      2.775539287
Magnitude (Debye)      :      7.054860209

Rotational constants in cm-1:             0.058646             0.027610             0.024857
Rotational constants in MHz :          1758.157746           827.729177           745.189917

                             ****ORCA TERMINATED NORMALLY****
TOTAL RUN TIME: 0 days 0 hours 0 minutes 52 seconds 623 msec
