                         Program Version 6.0.0  -   RELEASE  -
|  1> ! wb97x-v def2-tzvp def2/J RIJCOSX DEFGRID2 scfconv7 GCP(DFT/TZ) printgap
|  2> %output
|  3>     printlevel normal
|  4> end
|  5> * xyz 0 1
|  6> C 1.5271739143596783 1.2873929648231301 -1.451900616986924
|  7> C 2.8981570622066632 1.4258362815959704 -1.6023025319711346
|  8> C 3.7515985277045014 0.8330579781325362 -0.6819135613196652
|  9> C 3.2442596217880073 0.10830597501563591 0.4015752262224599
| 10> C 1.8571882694363433 -0.017474480775382037 0.5382098205267456
| 11> C 0.9885119887418878 0.5595944680380137 -0.39255258843281765
| 12> C -0.4832778221240349 0.43796125791811713 -0.2613204958354641
| 13> C -1.2172847973038807 1.5391355553457677 0.16618902326068757
| 14> C -2.596651808577907 1.463877148922644 0.28800929204500003
| 15> C -3.276130363138947 0.28263502228196785 -0.016986212696669594
| 16> C -2.5466277007321003 -0.8286890533317958 -0.4611401811982183
| 17> C -1.1570376221611032 -0.7431820565772939 -0.585133978196729
| 18> Cl -0.252415396489249 -2.106926059500204 -1.1706393153871693
| 19> Cl -3.370419394702784 -2.297665570783181 -0.8609746273365733
| 20> Cl -4.996656122656122 0.18989350544671196 0.14450591051703385
| 21> Cl -3.465456981188714 2.870307443509711 0.8307203112837808
| 22> Cl 1.1964220530675809 -0.880577516120034 1.8978220457548651
| 23> Cl 4.313975583076691 -0.6136274121420235 1.558095280746267
| 24> Cl 5.47241404144913 1.010860796673396 -0.8938425203935484
| 25> H 0.8579468147167134 1.7441211937572394 -2.172531507228056
| 26> H 3.3060086366349175 1.9897228981727069 -2.4327569899868347
| 27> H -0.7011280747224437 2.4594904882983966 0.41308939007299594
| 28> *
| 29>
| 30>                          ****END OF INPUT****

CARTESIAN COORDINATES (ANGSTROEM)
---------------------------------
  C      1.527174    1.287393   -1.451901
  C      2.898157    1.425836   -1.602303
  C      3.751599    0.833058   -0.681914
  C      3.244260    0.108306    0.401575
  C      1.857188   -0.017474    0.538210
  C      0.988512    0.559594   -0.392553
  C     -0.483278    0.437961   -0.261320
  C     -1.217285    1.539136    0.166189
  C     -2.596652    1.463877    0.288009
  C     -3.276130    0.282635   -0.016986
  C     -2.546628   -0.828689   -0.461140
  C     -1.157038   -0.743182   -0.585134
  Cl    -0.252415   -2.106926   -1.170639
  Cl    -3.370419   -2.297666   -0.860975
  Cl    -4.996656    0.189894    0.144506
  Cl    -3.465457    2.870307    0.830720
  Cl     1.196422   -0.880578    1.897822
  Cl     4.313976   -0.613627    1.558095
  Cl     5.472414    1.010861   -0.893843
  H      0.857947    1.744121   -2.172532
  H      3.306009    1.989723   -2.432757
  H     -0.701128    2.459490    0.413089

 Total Charge           Charge          ....    0
 Multiplicity           Mult            ....    1
 Number of Electrons    NEL             ....  194
 Basis Dimension        Dim             ....  649

ORBITAL ENERGIES
----------------

  NO   OCC          E(Eh)            E(eV)
   0   2.0000    -107.169168     -2916.2213
   1   2.0000    -107.168873     -2916.2133
   2   2.0000    -107.167750     -2916.1827
   3   2.0000    -107.167197     -2916.1677
   4   2.0000    -107.165902     -2916.1325
   5   2.0000    -107.165843     -2916.1308
   6   2.0000    -107.164688     -2916.0994
   7   2.0000     -12.158671      -330.8543
   8   2.0000     -12.156652      -330.7993
   9   2.0000     -12.153398      -330.7108
  10   2.0000     -12.152685      -330.6914
  11   2.0000     -12.151715      -330.6650
  12   2.0000     -12.151410      -330.6567
  13   2.0000     -12.149070      -330.5930
  14   2.0000     -12.112123      -329.5876
  15   2.0000     -12.107484      -329.4614
  16   2.0000     -12.098204      -329.2089
  17   2.0000     -12.093715      -329.0867
  18   2.0000     -12.091590      -329.0289
  19   2.0000     -11.322170      -308.0919
  20   2.0000     -11.321891      -308.0843
  21   2.0000     -11.320791      -308.0544
  22   2.0000     -11.320250      -308.0397
  23   2.0000     -11.318928      -308.0037
  24   2.0000     -11.318858      -308.0018
  25   2.0000     -11.317740      -307.9714
  26   2.0000      -9.114114      -248.0076
  27   2.0000      -9.113571      -247.9929
  28   2.0000      -9.112294      -247.9581
  29   2.0000      -9.111854      -247.9462
  30   2.0000      -9.111363      -247.9328
  31   2.0000      -9.110981      -247.9224
  32   2.0000      -9.110924      -247.9209
  33   2.0000      -9.110683      -247.9143
  34   2.0000      -9.110393      -247.9064
  35   2.0000      -9.110366      -247.9057
  36   2.0000      -9.109671      -247.8867
  37   2.0000      -9.109432      -247.8802
  38   2.0000      -9.109196      -247.8738
  39   2.0000      -9.109078      -247.8706
  40   2.0000      -9.108870      -247.8650
  41   2.0000      -9.108179      -247.8462
  42   2.0000      -9.107749      -247.8344
  43   2.0000      -9.107627      -247.8311
  44   2.0000      -9.107246      -247.8208
  45   2.0000      -9.106561      -247.8021
  46   2.0000      -9.106346      -247.7963
  47   2.0000      -1.497674       -40.7538
  48   2.0000      -1.486623       -40.4531
  49   2.0000      -1.461139       -39.7596
  50   2.0000      -1.449893       -39.4536
  51   2.0000      -1.444197       -39.2986
  52   2.0000      -1.430304       -38.9205
  53   2.0000      -1.428006       -38.8580
  54   2.0000      -1.405641       -38.2494
  55   2.0000      -1.387067       -37.7440
  56   2.0000      -1.331559       -36.2336
  57   2.0000      -1.301795       -35.4236
  58   2.0000      -1.298661       -35.3384
  59   2.0000      -1.284228       -34.9456
  60   2.0000      -1.181520       -32.1508
  61   2.0000      -1.155832       -31.4518
  62   2.0000      -1.150430       -31.3048
  63   2.0000      -1.129806       -30.7436
  64   2.0000      -1.044126       -28.4121
  65   2.0000      -1.031500       -28.0685
  66   2.0000      -1.024920       -27.8895
  67   2.0000      -1.003984       -27.3198
  68   2.0000      -0.989314       -26.9206
  69   2.0000      -0.971679       -26.4407
  70   2.0000      -0.957495       -26.0548
  71   2.0000      -0.954058       -25.9613
  72   2.0000      -0.943161       -25.6647
  73   2.0000      -0.927734       -25.2449
  74   2.0000      -0.902892       -24.5689
  75   2.0000      -0.895120       -24.3575
  76   2.0000      -0.889769       -24.2118
  77   2.0000      -0.880408       -23.9571
  78   2.0000      -0.876989       -23.8641
  79   2.0000      -0.847838       -23.0708
  80   2.0000      -0.836737       -22.7688
  81   2.0000      -0.833153       -22.6712
  82   2.0000      -0.824776       -22.4433
  83   2.0000      -0.823233       -22.4013
  84   2.0000      -0.823113       -22.3980
  85   2.0000      -0.821569       -22.3560
  86   2.0000      -0.820198       -22.3187
  87   2.0000      -0.815199       -22.1827
  88   2.0000      -0.814190       -22.1552
  89   2.0000      -0.807323       -21.9684
  90   2.0000      -0.805932       -21.9305
  91   2.0000      -0.787692       -21.4342
  92   2.0000      -0.781704       -21.2712
  93   2.0000      -0.699415       -19.0321
  94   2.0000      -0.688693       -18.7403
  95   2.0000      -0.683659       -18.6033
  96   2.0000      -0.682982       -18.5849
  97   0.0000      -0.344860        -9.3841
  98   0.0000      -0.331079        -9.0091
  99   0.0000      -0.322931        -8.7874
 100   0.0000      -0.311582        -8.4786
 101   0.0000      -0.303596        -8.2613

MULLIKEN ATOMIC CHARGES
-----------------------
   0 C :   -0.165755
   1 C :   -0.208322
   2 C :    0.096778
   3 C :   -0.010188
   4 C :    0.044312
   5 C :    0.075345
   6 C :    0.076750
   7 C :   -0.261145
   8 C :    0.093976
   9 C :    0.009643
  10 C :    0.006570
  11 C :    0.022207
  12 Cl:   -0.027822
  13 Cl:   -0.019478
  14 Cl:   -0.020901
  15 Cl:   -0.047538
  16 Cl:   -0.032063
  17 Cl:   -0.023162
  18 Cl:   -0.052192
  19 H :    0.146171
  20 H :    0.143462
  21 H :    0.153352
Sum of atomic charges:   -0.0000000

LOEWDIN ATOMIC CHARGES
----------------------
   0 C :   -0.084881
   1 C :   -0.131229
   2 C :   -0.421179
   3 C :   -0.437965
   4 C :   -0.387751
   5 C :   -0.124308
   6 C :   -0.121949
   7 C :   -0.092645
   8 C :   -0.425534
   9 C :   -0.440755
  10 C :   -0.437176
  11 C :   -0.393927
  12 Cl:    0.446070
  13 Cl:    0.439186
  14 Cl:    0.438180
  15 Cl:    0.417635
  16 Cl:    0.442251
  17 Cl:    0.432688
  18 Cl:    0.411687
  19 H :    0.157284
  20 H :    0.153260
  21 H :    0.161062

  Mayer bond orders larger than 0.100000
B(  0-C ,  1-C ) :   1.4415 B(  0-C ,  5-C ) :   1.3871 B(  0-C , 19-H ) :   0.9669
B(  1-C ,  2-C ) :   1.4014 B(  1-C , 20-H ) :   0.9624 B(  2-C ,  3-C ) :   1.3153
B(  2-C , 18-Cl) :   1.0899 B(  3-C ,  4-C ) :   1.3279 B(  3-C , 17-Cl) :   1.2155
B(  4-C ,  5-C ) :   1.3129 B(  4-C , 16-Cl) :   1.2033 B(  5-C ,  6-C ) :   0.8191
B(  6-C ,  7-C ) :   1.3962 B(  6-C , 11-C ) :   1.3091 B(  7-C ,  8-C ) :   1.4048
B(  7-C , 21-H ) :   0.9631 B(  8-C ,  9-C ) :   1.3281 B(  8-C , 15-Cl) :   1.0765
B(  9-C , 10-C ) :   1.3136 B(  9-C , 14-Cl) :   1.2121 B( 10-C , 11-C ) :   1.3373
B( 10-C , 13-Cl) :   1.2145 B( 11-C , 12-Cl) :   1.2140

FINAL SINGLE POINT ENERGY     -3680.130204816758

DIPOLE MOMENT
-------------

Method             : SCF
Type of density    : Electron Density
Multiplicity       :   1
Irrep              :   0
Energy             : -3680.1412477750582184 Eh
Relativity type    :
Basis              : AO
                                X                 Y                 Z
Electronic contribution:     -4.624559577      -7.861694309       5.384531677
Nuclear contribution   :      4.733497474       8.558211950      -5.947315799
                        -----------------------------------------
Total Dipole Moment    :      0.108937897       0.696517642      -0.562784122
                        -----------------------------------------
Magnitude (a.u.)       :      0.902069985
Magnitude (Debye)      :      2.292879685

Rotational constants in cm-1:             0.013111             0.003569             0.003261
Rotational constants in MHz :           393.054460           106.985829            97.761211

                             ****ORCA TERMINATED NORMALLY****
TOTAL RUN TIME: 0 days 0 hours 11 minutes 48 seconds 827 msec
