                         Program Version 6.0.0  -   RELEASE  -
|  1> ! wb97x-v def2-tzvp def2/J RIJCOSX DEFGRID2 scfconv7 GCP(DFT/TZ) printgap
|  2> %output
|  3>     printlevel normal
|  4> end
|  5> %cpcm
|  6>     smd true
|  7>     smdsolvent "water"
|  8> end
|  9> * xyz 0 1
| 10> C 1.5271739143596783 1.2873929648231301 -1.451900616986924
| 11> C 2.8981570622066632 1.4258362815959704 -1.6023025319711346
| 12> C 3.7515985277045014 0.8330579781325362 -0.6819135613196652
| 13> C 3.2442596217880073 0.10830597501563591 0.4015752262224599
| 14> C 1.8571882694363433 -0.017474480775382037 0.5382098205267456
| 15> C 0.9885119887418878 0.5595944680380137 -0.39255258843281765
| 16> C -0.4832778221240349 0.43796125791811713 -0.2613204958354641
| 17> C -1.2172847973038807 1.5391355553457677 0.16618902326068757
| 18> C -2.596651808577907 1.463877148922644 0.28800929204500003
| 19> C -3.276130363138947 0.28263502228196785 -0.016986212696669594
| 20> C -2.5466277007321003 -0.8286890533317958 -0.4611401811982183
| 21> C -1.1570376221611032 -0.7431820565772939 -0.585133978196729
| 22> Cl -0.252415396489249 -2.106926059500204 -1.1706393153871693
| 23> Cl -3.370419394702784 -2.297665570783181 -0.8609746273365733
| 24> Cl -4.996656122656122 0.18989350544671196 0.14450591051703385
| 25> Cl -3.465456981188714 2.870307443509711 0.8307203112837808
| 26> Cl 1.1964220530675809 -0.880577516120034 1.8978220457548651
| 27> Cl 4.313975583076691 -0.6136274121420235 1.558095280746267
| 28> Cl 5.47241404144913 1.010860796673396 -0.8938425203935484
| 29> H 0.8579468147167134 1.7441211937572394 -2.172531507228056
| 30> H 3.3060086366349175 1.9897228981727069 -2.4327569899868347
| 31> H -0.7011280747224437 2.4594904882983966 0.41308939007299594
| 32> *
| 33>
| 34>                          ****END OF INPUT****

CARTESIAN COORDINATES (ANGSTROEM)
---------------------------------
  C      1.527174    1.287393   -1.451901
  C      2.898157    1.425836   -1.602303
  C      3.751599    0.833058   -0.681914
  C      3.244260    0.108306    0.401575
  C      1.857188   -0.017474    0.538210
  C      0.988512    0.559594   -0.392553
  C     -0.483278    0.437961   -0.261320
  C     -1.217285    1.539136    0.166189
  C     -2.596652    1.463877    0.288009
  C     -3.276130    0.282635   -0.016986
  C     -2.546628   -0.828689   -0.461140
  C     -1.157038   -0.743182   -0.585134
  Cl    -0.252415   -2.106926   -1.170639
  Cl    -3.370419   -2.297666   -0.860975
  Cl    -4.996656    0.189894    0.144506
  Cl    -3.465457    2.870307    0.830720
  Cl     1.196422   -0.880578    1.897822
  Cl     4.313976   -0.613627    1.558095
  Cl     5.472414    1.010861   -0.893843
  H      0.857947    1.744121   -2.172532
  H      3.306009    1.989723   -2.432757
  H     -0.701128    2.459490    0.413089

 Total Charge           Charge          ....    0
 Multiplicity           Mult            ....    1
 Number of Electrons    NEL             ....  194
 Basis Dimension        Dim             ....  649

ORBITAL ENERGIES
----------------

  NO   OCC          E(Eh)            E(eV)
   0   2.0000    -107.167200     -2916.1678
   1   2.0000    -107.167067     -2916.1642
   2   2.0000    -107.164040     -2916.0818
   3   2.0000    -107.163988     -2916.0804
   4   2.0000    -107.162966     -2916.0526
   5   2.0000    -107.162171     -2916.0309
   6   2.0000    -107.160075     -2915.9739
   7   2.0000     -12.151804      -330.6674
   8   2.0000     -12.149732      -330.6110
   9   2.0000     -12.145387      -330.4928
  10   2.0000     -12.144815      -330.4772
  11   2.0000     -12.143090      -330.4303
  12   2.0000     -12.142410      -330.4118
  13   2.0000     -12.139059      -330.3206
  14   2.0000     -12.101916      -329.3099
  15   2.0000     -12.095864      -329.1452
  16   2.0000     -12.085207      -328.8552
  17   2.0000     -12.077536      -328.6465
  18   2.0000     -12.075390      -328.5881
  19   2.0000     -11.320257      -308.0399
  20   2.0000     -11.320135      -308.0365
  21   2.0000     -11.317147      -307.9552
  22   2.0000     -11.317049      -307.9525
  23   2.0000     -11.316049      -307.9254
  24   2.0000     -11.315303      -307.9051
  25   2.0000     -11.313197      -307.8477
  26   2.0000      -9.112226      -247.9563
  27   2.0000      -9.111620      -247.9398
  28   2.0000      -9.109526      -247.8828
  29   2.0000      -9.109093      -247.8710
  30   2.0000      -9.108951      -247.8672
  31   2.0000      -9.108823      -247.8637
  32   2.0000      -9.108777      -247.8624
  33   2.0000      -9.108504      -247.8550
  34   2.0000      -9.107613      -247.8307
  35   2.0000      -9.106945      -247.8126
  36   2.0000      -9.106094      -247.7894
  37   2.0000      -9.105995      -247.7867
  38   2.0000      -9.105894      -247.7840
  39   2.0000      -9.105843      -247.7826
  40   2.0000      -9.104875      -247.7562
  41   2.0000      -9.104822      -247.7548
  42   2.0000      -9.104740      -247.7526
  43   2.0000      -9.104141      -247.7363
  44   2.0000      -9.103978      -247.7318
  45   2.0000      -9.102060      -247.6797
  46   2.0000      -9.101968      -247.6771
  47   2.0000      -1.491767       -40.5930
  48   2.0000      -1.480159       -40.2772
  49   2.0000      -1.456659       -39.6377
  50   2.0000      -1.444778       -39.3144
  51   2.0000      -1.439749       -39.1776
  52   2.0000      -1.426719       -38.8230
  53   2.0000      -1.425165       -38.7807
  54   2.0000      -1.397260       -38.0214
  55   2.0000      -1.378581       -37.5131
  56   2.0000      -1.322962       -35.9996
  57   2.0000      -1.291188       -35.1350
  58   2.0000      -1.290076       -35.1047
  59   2.0000      -1.275314       -34.7031
  60   2.0000      -1.172144       -31.8957
  61   2.0000      -1.146596       -31.2005
  62   2.0000      -1.139611       -31.0104
  63   2.0000      -1.120444       -30.4888
  64   2.0000      -1.035267       -28.1710
  65   2.0000      -1.022761       -27.8307
  66   2.0000      -1.013406       -27.5762
  67   2.0000      -0.997103       -27.1325
  68   2.0000      -0.982527       -26.7359
  69   2.0000      -0.965378       -26.2693
  70   2.0000      -0.951752       -25.8985
  71   2.0000      -0.947343       -25.7785
  72   2.0000      -0.934066       -25.4172
  73   2.0000      -0.919821       -25.0296
  74   2.0000      -0.890857       -24.2415
  75   2.0000      -0.883175       -24.0324
  76   2.0000      -0.881719       -23.9928
  77   2.0000      -0.870567       -23.6893
  78   2.0000      -0.865614       -23.5546
  79   2.0000      -0.843831       -22.9618
  80   2.0000      -0.832600       -22.6562
  81   2.0000      -0.829777       -22.5794
  82   2.0000      -0.822928       -22.3930
  83   2.0000      -0.821258       -22.3476
  84   2.0000      -0.820591       -22.3294
  85   2.0000      -0.818801       -22.2807
  86   2.0000      -0.817283       -22.2394
  87   2.0000      -0.811280       -22.0760
  88   2.0000      -0.810077       -22.0433
  89   2.0000      -0.805062       -21.9068
  90   2.0000      -0.803030       -21.8516
  91   2.0000      -0.779793       -21.2192
  92   2.0000      -0.774554       -21.0767
  93   2.0000      -0.690716       -18.7953
  94   2.0000      -0.680585       -18.5197
  95   2.0000      -0.673525       -18.3275
  96   2.0000      -0.672516       -18.3001
  97   0.0000      -0.339693        -9.2435
  98   0.0000      -0.324857        -8.8398
  99   0.0000      -0.313780        -8.5384
 100   0.0000      -0.301607        -8.2072
 101   0.0000      -0.293185        -7.9780

MULLIKEN ATOMIC CHARGES
-----------------------
   0 C :   -0.198159
   1 C :   -0.227744
   2 C :    0.109215
   3 C :   -0.001501
   4 C :    0.040250
   5 C :    0.100931
   6 C :    0.095199
   7 C :   -0.266850
   8 C :    0.101016
   9 C :    0.023715
  10 C :    0.015641
  11 C :    0.020939
  12 Cl:   -0.046657
  13 Cl:   -0.039355
  14 Cl:   -0.040632
  15 Cl:   -0.062825
  16 Cl:   -0.054450
  17 Cl:   -0.047210
  18 Cl:   -0.072445
  19 H :    0.183368
  20 H :    0.180385
  21 H :    0.187168
Sum of atomic charges:   -0.0000000

LOEWDIN ATOMIC CHARGES
----------------------
   0 C :   -0.068086
   1 C :   -0.120531
   2 C :   -0.423313
   3 C :   -0.441336
   4 C :   -0.389979
   5 C :   -0.118939
   6 C :   -0.113678
   7 C :   -0.073951
   8 C :   -0.422884
   9 C :   -0.439085
  10 C :   -0.436505
  11 C :   -0.391697
  12 Cl:    0.433910
  13 Cl:    0.425519
  14 Cl:    0.424989
  15 Cl:    0.407049
  16 Cl:    0.426845
  17 Cl:    0.415213
  18 Cl:    0.396972
  19 H :    0.170708
  20 H :    0.164865
  21 H :    0.173915

  Mayer bond orders larger than 0.100000
B(  0-C ,  1-C ) :   1.4403 B(  0-C ,  5-C ) :   1.3777 B(  0-C , 19-H ) :   0.9728
B(  1-C ,  2-C ) :   1.3711 B(  1-C , 20-H ) :   0.9645 B(  2-C ,  3-C ) :   1.3136
B(  2-C , 18-Cl) :   1.0723 B(  3-C ,  4-C ) :   1.3322 B(  3-C , 17-Cl) :   1.1850
B(  4-C ,  5-C ) :   1.3035 B(  4-C , 16-Cl) :   1.1759 B(  5-C ,  6-C ) :   0.8118
B(  6-C ,  7-C ) :   1.4134 B(  6-C , 11-C ) :   1.3006 B(  7-C ,  8-C ) :   1.3838
B(  7-C , 21-H ) :   0.9627 B(  8-C ,  9-C ) :   1.3262 B(  8-C , 15-Cl) :   1.0722
B(  9-C , 10-C ) :   1.3203 B(  9-C , 14-Cl) :   1.1846 B( 10-C , 11-C ) :   1.3409
B( 10-C , 13-Cl) :   1.1880 B( 11-C , 12-Cl) :   1.1869

FINAL SINGLE POINT ENERGY     -3680.131601191480

DIPOLE MOMENT
-------------

Method             : SCF
Type of density    : Electron Density
Multiplicity       :   1
Irrep              :   0
Energy             : -3680.1426441497801534 Eh
Relativity type    :
Basis              : AO
                                X                 Y                 Z
Electronic contribution:     -4.595688125      -7.296968810       5.016433687
Nuclear contribution   :      4.733497474       8.558211950      -5.947315799
                        -----------------------------------------
Total Dipole Moment    :      0.137809348       1.261243141      -0.930882111
                        -----------------------------------------
Magnitude (a.u.)       :      1.573615958
Magnitude (Debye)      :      3.999813894

Rotational constants in cm-1:             0.013111             0.003569             0.003261
Rotational constants in MHz :           393.054460           106.985829            97.761211

                             ****ORCA TERMINATED NORMALLY****
TOTAL RUN TIME: 0 days 0 hours 12 minutes 14 seconds 425 msec
