                         Program Version 6.0.0  -   RELEASE  -
|  1> ! wb97x-v def2-tzvp def2/J RIJCOSX DEFGRID2 scfconv7 GCP(DFT/TZ) printgap
|  2> %output
|  3>     printlevel normal
|  4> end
|  5> * xyz 0 1
|  6> C -3.1858744116838236 -0.15873814819752 0.0020082476882202003
|  7> O -1.9628562432448455 -0.9093329894157925 0.0010073762106658684
|  8> C -0.7867545516737097 -0.1966175040243056 0.004843682851552061
|  9> C -0.7202728859829562 1.198579814289431 0.001859746842986867
| 10> C 0.5432681230062353 1.7938477324397237 0.0008933285853054548
| 11> C 1.7078732423328102 1.0423903608085612 0.006215079379063229
| 12> C 1.630476801364749 -0.36242410130288166 0.012784452129626412
| 13> C 0.37301643856633065 -0.9727907655296287 0.00860259569375509
| 14> N 2.78667676653685 -1.1303197157715952 0.0851833735441323
| 15> H -3.2663176085231758 0.46672066726755557 -0.8941270228396687
| 16> H -3.2657018152804334 0.4641472957846525 0.9000222936834218
| 17> H -3.9861660537275423 -0.8998257761295725 0.0011599540706613983
| 18> H -1.610677388428488 1.8132386766146118 -0.002728447456633876
| 19> H 0.6115362921822449 2.877663732201001 -0.006262610240318713
| 20> H 2.679685310523854 1.5269681412325298 0.005838060880122071
| 21> H 0.28701954971810767 -2.055571531733336 0.00953091368465178
| 22> H 3.6127300197141268 -0.6735367967843943 -0.2746007043047098
| 23> H 2.6892966873199597 -2.073204789122719 -0.264162045136138
| 24> *
| 25>
| 26>                          ****END OF INPUT****

CARTESIAN COORDINATES (ANGSTROEM)
---------------------------------
  C     -3.185874   -0.158738    0.002008
  O     -1.962856   -0.909333    0.001007
  C     -0.786755   -0.196618    0.004844
  C     -0.720273    1.198580    0.001860
  C      0.543268    1.793848    0.000893
  C      1.707873    1.042390    0.006215
  C      1.630477   -0.362424    0.012784
  C      0.373016   -0.972791    0.008603
  N      2.786677   -1.130320    0.085183
  H     -3.266318    0.466721   -0.894127
  H     -3.265702    0.464147    0.900022
  H     -3.986166   -0.899826    0.001160
  H     -1.610677    1.813239   -0.002728
  H      0.611536    2.877664   -0.006263
  H      2.679685    1.526968    0.005838
  H      0.287020   -2.055572    0.009531
  H      3.612730   -0.673537   -0.274601
  H      2.689297   -2.073205   -0.264162

 Total Charge           Charge          ....    0
 Multiplicity           Mult            ....    1
 Number of Electrons    NEL             ....   66
 Basis Dimension        Dim             ....  333

ORBITAL ENERGIES
----------------

  NO   OCC          E(Eh)            E(eV)
   0   2.0000     -21.697103      -590.4082
   1   2.0000     -16.529652      -449.7947
   2   2.0000     -12.106883      -329.4450
   3   2.0000     -12.097246      -329.1828
   4   2.0000     -12.090212      -328.9914
   5   2.0000     -12.050012      -327.8975
   6   2.0000     -12.034294      -327.4698
   7   2.0000     -12.033949      -327.4604
   8   2.0000     -12.033086      -327.4369
   9   2.0000      -1.708984       -46.5038
  10   2.0000      -1.489287       -40.5255
  11   2.0000      -1.368705       -37.2444
  12   2.0000      -1.288373       -35.0584
  13   2.0000      -1.258727       -34.2517
  14   2.0000      -1.218864       -33.1670
  15   2.0000      -1.117736       -30.4151
  16   2.0000      -1.105679       -30.0870
  17   2.0000      -1.047278       -28.4979
  18   2.0000      -1.012478       -27.5509
  19   2.0000      -0.975078       -26.5332
  20   2.0000      -0.970749       -26.4154
  21   2.0000      -0.970350       -26.4046
  22   2.0000      -0.939791       -25.5730
  23   2.0000      -0.915361       -24.9082
  24   2.0000      -0.875342       -23.8193
  25   2.0000      -0.839404       -22.8413
  26   2.0000      -0.829375       -22.5685
  27   2.0000      -0.824293       -22.4302
  28   2.0000      -0.814926       -22.1753
  29   2.0000      -0.809326       -22.0229
  30   2.0000      -0.738975       -20.1085
  31   2.0000      -0.631367       -17.1804
  32   2.0000      -0.613804       -16.7025
  33   0.0000      -0.238379        -6.4866
  34   0.0000      -0.232266        -6.3203
  35   0.0000      -0.176796        -4.8109
  36   0.0000      -0.107650        -2.9293
  37   0.0000      -0.065414        -1.7800

MULLIKEN ATOMIC CHARGES
-----------------------
   0 C :   -0.210997
   1 O :   -0.251160
   2 C :    0.325534
   3 C :   -0.303363
   4 C :   -0.098432
   5 C :   -0.281388
   6 C :    0.339444
   7 C :   -0.347586
   8 N :   -0.443485
   9 H :    0.121010
  10 H :    0.122194
  11 H :    0.134513
  12 H :    0.120688
  13 H :    0.113346
  14 H :    0.102755
  15 H :    0.104746
  16 H :    0.225675
  17 H :    0.226506
Sum of atomic charges:    0.0000000

LOEWDIN ATOMIC CHARGES
----------------------
   0 C :   -0.314011
   1 O :    0.211511
   2 C :   -0.237851
   3 C :   -0.171966
   4 C :   -0.137605
   5 C :   -0.156455
   6 C :   -0.237622
   7 C :   -0.118408
   8 N :   -0.049148
   9 H :    0.105373
  10 H :    0.105769
  11 H :    0.111448
  12 H :    0.141731
  13 H :    0.142726
  14 H :    0.137605
  15 H :    0.144703
  16 H :    0.161051
  17 H :    0.161149

  Mayer bond orders larger than 0.100000
B(  0-C ,  1-O ) :   0.9503 B(  0-C ,  9-H ) :   0.9725 B(  0-C , 10-H ) :   0.9727
B(  0-C , 11-H ) :   0.9788 B(  1-O ,  2-C ) :   1.1398 B(  2-C ,  3-C ) :   1.3351
B(  2-C ,  7-C ) :   1.4464 B(  3-C ,  4-C ) :   1.4055 B(  3-C , 12-H ) :   0.9629
B(  4-C ,  5-C ) :   1.5227 B(  4-C , 13-H ) :   0.9649 B(  5-C ,  6-C ) :   1.3423
B(  5-C , 14-H ) :   0.9671 B(  6-C ,  7-C ) :   1.3985 B(  6-C ,  8-N ) :   1.0750
B(  7-C , 15-H ) :   0.9606 B(  8-N , 16-H ) :   0.9290 B(  8-N , 17-H ) :   0.9293

FINAL SINGLE POINT ENERGY      -402.149848933370

DIPOLE MOMENT
-------------

Method             : SCF
Type of density    : Electron Density
Multiplicity       :   1
Irrep              :   0
Energy             :  -402.1603955912702304 Eh
Relativity type    :
Basis              : AO
                                X                 Y                 Z
Electronic contribution:      2.182645925      -1.290365652       0.178558918
Nuclear contribution   :     -2.130041392       1.390128353      -0.569796941
                        -----------------------------------------
Total Dipole Moment    :      0.052604534       0.099762701      -0.391238023
                        -----------------------------------------
Magnitude (a.u.)       :      0.407169527
Magnitude (Debye)      :      1.034942690

Rotational constants in cm-1:             0.120455             0.037602             0.028838
Rotational constants in MHz :          3611.164700          1127.279620           864.544462

                             ****ORCA TERMINATED NORMALLY****
TOTAL RUN TIME: 0 days 0 hours 3 minutes 31 seconds 886 msec
