                         Program Version 6.0.0  -   RELEASE  -
|  1> ! wb97x-v def2-tzvp def2/J RIJCOSX DEFGRID2 scfconv7 GCP(DFT/TZ) printgap
|  2> %output
|  3>     printlevel normal
|  4> end
|  5> %cpcm
|  6>     smd true
|  7>     smdsolvent "water"
|  8> end
|  9> * xyz 0 1
| 10> C -3.1858744116838236 -0.15873814819752 0.0020082476882202003
| 11> O -1.9628562432448455 -0.9093329894157925 0.0010073762106658684
| 12> C -0.7867545516737097 -0.1966175040243056 0.004843682851552061
| 13> C -0.7202728859829562 1.198579814289431 0.001859746842986867
| 14> C 0.5432681230062353 1.7938477324397237 0.0008933285853054548
| 15> C 1.7078732423328102 1.0423903608085612 0.006215079379063229
| 16> C 1.630476801364749 -0.36242410130288166 0.012784452129626412
| 17> C 0.37301643856633065 -0.9727907655296287 0.00860259569375509
| 18> N 2.78667676653685 -1.1303197157715952 0.0851833735441323
| 19> H -3.2663176085231758 0.46672066726755557 -0.8941270228396687
| 20> H -3.2657018152804334 0.4641472957846525 0.9000222936834218
| 21> H -3.9861660537275423 -0.8998257761295725 0.0011599540706613983
| 22> H -1.610677388428488 1.8132386766146118 -0.002728447456633876
| 23> H 0.6115362921822449 2.877663732201001 -0.006262610240318713
| 24> H 2.679685310523854 1.5269681412325298 0.005838060880122071
| 25> H 0.28701954971810767 -2.055571531733336 0.00953091368465178
| 26> H 3.6127300197141268 -0.6735367967843943 -0.2746007043047098
| 27> H 2.6892966873199597 -2.073204789122719 -0.264162045136138
| 28> *
| 29>
| 30>                          ****END OF INPUT****

CARTESIAN COORDINATES (ANGSTROEM)
---------------------------------
  C     -3.185874   -0.158738    0.002008
  O     -1.962856   -0.909333    0.001007
  C     -0.786755   -0.196618    0.004844
  C     -0.720273    1.198580    0.001860
  C      0.543268    1.793848    0.000893
  C      1.707873    1.042390    0.006215
  C      1.630477   -0.362424    0.012784
  C      0.373016   -0.972791    0.008603
  N      2.786677   -1.130320    0.085183
  H     -3.266318    0.466721   -0.894127
  H     -3.265702    0.464147    0.900022
  H     -3.986166   -0.899826    0.001160
  H     -1.610677    1.813239   -0.002728
  H      0.611536    2.877664   -0.006263
  H      2.679685    1.526968    0.005838
  H      0.287020   -2.055572    0.009531
  H      3.612730   -0.673537   -0.274601
  H      2.689297   -2.073205   -0.264162

 Total Charge           Charge          ....    0
 Multiplicity           Mult            ....    1
 Number of Electrons    NEL             ....   66
 Basis Dimension        Dim             ....  333

ORBITAL ENERGIES
----------------

  NO   OCC          E(Eh)            E(eV)
   0   2.0000     -21.702947      -590.5672
   1   2.0000     -16.521550      -449.5742
   2   2.0000     -12.111791      -329.5786
   3   2.0000     -12.092626      -329.0571
   4   2.0000     -12.086790      -328.8983
   5   2.0000     -12.051873      -327.9481
   6   2.0000     -12.036245      -327.5229
   7   2.0000     -12.035954      -327.5150
   8   2.0000     -12.035133      -327.4926
   9   2.0000      -1.715159       -46.6718
  10   2.0000      -1.483704       -40.3736
  11   2.0000      -1.372484       -37.3472
  12   2.0000      -1.291228       -35.1361
  13   2.0000      -1.260769       -34.3073
  14   2.0000      -1.218454       -33.1558
  15   2.0000      -1.119601       -30.4659
  16   2.0000      -1.104283       -30.0491
  17   2.0000      -1.046820       -28.4854
  18   2.0000      -1.010249       -27.4903
  19   2.0000      -0.976063       -26.5600
  20   2.0000      -0.974396       -26.5147
  21   2.0000      -0.968239       -26.3471
  22   2.0000      -0.939586       -25.5674
  23   2.0000      -0.916321       -24.9344
  24   2.0000      -0.876501       -23.8508
  25   2.0000      -0.836704       -22.7679
  26   2.0000      -0.824066       -22.4240
  27   2.0000      -0.821559       -22.3558
  28   2.0000      -0.810366       -22.0512
  29   2.0000      -0.807702       -21.9787
  30   2.0000      -0.742320       -20.1996
  31   2.0000      -0.637577       -17.3493
  32   2.0000      -0.617051       -16.7908
  33   0.0000      -0.243713        -6.6318
  34   0.0000      -0.236962        -6.4481
  35   0.0000      -0.175156        -4.7662
  36   0.0000      -0.107467        -2.9243
  37   0.0000      -0.068436        -1.8622

MULLIKEN ATOMIC CHARGES
-----------------------
   0 C :   -0.225413
   1 O :   -0.307406
   2 C :    0.363129
   3 C :   -0.364289
   4 C :   -0.121874
   5 C :   -0.351600
   6 C :    0.291069
   7 C :   -0.419839
   8 N :   -0.492792
   9 H :    0.143198
  10 H :    0.143277
  11 H :    0.156939
  12 H :    0.170691
  13 H :    0.161265
  14 H :    0.155412
  15 H :    0.147918
  16 H :    0.275227
  17 H :    0.275089
Sum of atomic charges:    0.0000000

LOEWDIN ATOMIC CHARGES
----------------------
   0 C :   -0.309006
   1 O :    0.186515
   2 C :   -0.253612
   3 C :   -0.179704
   4 C :   -0.149262
   5 C :   -0.165584
   6 C :   -0.249912
   7 C :   -0.132010
   8 N :   -0.054541
   9 H :    0.113394
  10 H :    0.113456
  11 H :    0.117266
  12 H :    0.153597
  13 H :    0.152880
  14 H :    0.149833
  15 H :    0.154192
  16 H :    0.176357
  17 H :    0.176142

  Mayer bond orders larger than 0.100000
B(  0-C ,  1-O ) :   0.9124 B(  0-C ,  9-H ) :   0.9697 B(  0-C , 10-H ) :   0.9698
B(  0-C , 11-H ) :   0.9705 B(  1-O ,  2-C ) :   1.1116 B(  2-C ,  3-C ) :   1.3196
B(  2-C ,  7-C ) :   1.3810 B(  3-C ,  4-C ) :   1.3697 B(  3-C , 12-H ) :   0.9681
B(  4-C ,  5-C ) :   1.4788 B(  4-C , 13-H ) :   0.9658 B(  5-C ,  6-C ) :   1.3231
B(  5-C , 14-H ) :   0.9777 B(  6-C ,  7-C ) :   1.3971 B(  6-C ,  8-N ) :   1.1287
B(  7-C , 15-H ) :   0.9781 B(  8-N , 16-H ) :   0.9080 B(  8-N , 17-H ) :   0.9084

FINAL SINGLE POINT ENERGY      -402.160250694553

DIPOLE MOMENT
-------------

Method             : SCF
Type of density    : Electron Density
Multiplicity       :   1
Irrep              :   0
Energy             :  -402.1707973524531781 Eh
Relativity type    :
Basis              : AO
                                X                 Y                 Z
Electronic contribution:      2.249466472      -1.164834593       0.040252266
Nuclear contribution   :     -2.130041392       1.390128353      -0.569796941
                        -----------------------------------------
Total Dipole Moment    :      0.119425080       0.225293760      -0.529544676
                        -----------------------------------------
Magnitude (a.u.)       :      0.587739051
Magnitude (Debye)      :      1.493913943

Rotational constants in cm-1:             0.120455             0.037602             0.028838
Rotational constants in MHz :          3611.164700          1127.279620           864.544462

                             ****ORCA TERMINATED NORMALLY****
TOTAL RUN TIME: 0 days 0 hours 3 minutes 40 seconds 897 msec
