                         Program Version 6.0.0  -   RELEASE  -
|  1> ! wb97x-v def2-tzvp def2/J RIJCOSX DEFGRID2 scfconv7 GCP(DFT/TZ) printgap
|  2> %output
|  3>     printlevel normal
|  4> end
|  5> * xyz 0 1
|  6> C 2.8993201747662347 -0.06113431002516356 -0.0009954756206136714
|  7> C 1.4011704641075142 -0.004132579680797919 0.0004080747796155763
|  8> C 0.7088439857601806 1.211132582944425 0.0002834087372477043
|  9> C -0.6754021761583583 1.2108629358063476 0.00024332085258576866
| 10> C -1.3675153658745247 -0.00571268148690836 0.0002469572695921405
| 11> N -0.7172907468038122 -1.179458945749692 0.0006833286243725676
| 12> C 0.6263447402271807 -1.1592195412676727 0.0008455003706544545
| 13> C -2.866766972093278 -0.027201478035139295 -0.0006921394457692218
| 14> H 3.308776011751269 0.42692846227867554 -0.8919502297125834
| 15> H 3.3119315469024566 0.45879851851891984 0.8700846800685315
| 16> H 3.2535184969935615 -1.0948494714913977 0.016532420570409902
| 17> H 1.2581197046134647 2.149083289206857 0.00036021538196974614
| 18> H -1.2293643638620715 2.144870506242283 0.0003581961840189978
| 19> H 1.116382155736514 -2.132214831410669 0.0015526743742716378
| 20> H -3.2415817307912076 -1.0520049530574134 0.007455284802985279
| 21> H -3.2626450120319572 0.49896416912470326 0.8746784678167888
| 22> H -3.260973884406543 0.48381954263392735 -0.8858325381599892
| 23> *
| 24>
| 25>                          ****END OF INPUT****

CARTESIAN COORDINATES (ANGSTROEM)
---------------------------------
  C      2.899320   -0.061134   -0.000995
  C      1.401170   -0.004133    0.000408
  C      0.708844    1.211133    0.000283
  C     -0.675402    1.210863    0.000243
  C     -1.367515   -0.005713    0.000247
  N     -0.717291   -1.179459    0.000683
  C      0.626345   -1.159220    0.000846
  C     -2.866767   -0.027201   -0.000692
  H      3.308776    0.426928   -0.891950
  H      3.311932    0.458799    0.870085
  H      3.253518   -1.094849    0.016532
  H      1.258120    2.149083    0.000360
  H     -1.229364    2.144871    0.000358
  H      1.116382   -2.132215    0.001553
  H     -3.241582   -1.052005    0.007455
  H     -3.262645    0.498964    0.874678
  H     -3.260974    0.483820   -0.885833

 Total Charge           Charge          ....    0
 Multiplicity           Mult            ....    1
 Number of Electrons    NEL             ....   58
 Basis Dimension        Dim             ....  302

ORBITAL ENERGIES
----------------

  NO   OCC          E(Eh)            E(eV)
   0   2.0000     -16.518257      -449.4846
   1   2.0000     -12.087698      -328.9230
   2   2.0000     -12.076556      -328.6198
   3   2.0000     -12.065014      -328.3057
   4   2.0000     -12.061563      -328.2118
   5   2.0000     -12.053239      -327.9853
   6   2.0000     -12.049793      -327.8916
   7   2.0000     -12.038957      -327.5967
   8   2.0000      -1.511923       -41.1415
   9   2.0000      -1.349368       -36.7182
  10   2.0000      -1.314986       -35.7826
  11   2.0000      -1.236756       -33.6538
  12   2.0000      -1.182183       -32.1688
  13   2.0000      -1.139810       -31.0158
  14   2.0000      -1.105346       -30.0780
  15   2.0000      -0.999069       -27.1860
  16   2.0000      -0.956282       -26.0218
  17   2.0000      -0.913438       -24.8559
  18   2.0000      -0.874605       -23.7992
  19   2.0000      -0.869357       -23.6564
  20   2.0000      -0.856420       -23.3044
  21   2.0000      -0.840349       -22.8671
  22   2.0000      -0.840167       -22.8621
  23   2.0000      -0.822020       -22.3683
  24   2.0000      -0.816683       -22.2231
  25   2.0000      -0.797129       -21.6910
  26   2.0000      -0.755448       -20.5568
  27   2.0000      -0.690846       -18.7989
  28   2.0000      -0.638599       -17.3772
  29   0.0000      -0.286616        -7.7992
  30   0.0000      -0.243219        -6.6183
  31   0.0000      -0.097325        -2.6484
  32   0.0000      -0.050277        -1.3681
  33   0.0000      -0.038399        -1.0449

MULLIKEN ATOMIC CHARGES
-----------------------
   0 C :   -0.350713
   1 C :    0.132788
   2 C :   -0.175024
   3 C :   -0.162189
   4 C :    0.168700
   5 N :   -0.236338
   6 C :   -0.107564
   7 C :   -0.370336
   8 H :    0.124682
   9 H :    0.124419
  10 H :    0.118794
  11 H :    0.125239
  12 H :    0.120532
  13 H :    0.111908
  14 H :    0.135784
  15 H :    0.119637
  16 H :    0.119681
Sum of atomic charges:   -0.0000000

LOEWDIN ATOMIC CHARGES
----------------------
   0 C :   -0.252417
   1 C :   -0.188343
   2 C :   -0.093779
   3 C :   -0.125378
   4 C :   -0.240082
   5 N :    0.142075
   6 C :   -0.178607
   7 C :   -0.256354
   8 H :    0.127564
   9 H :    0.127444
  10 H :    0.126487
  11 H :    0.146271
  12 H :    0.145455
  13 H :    0.135975
  14 H :    0.128946
  15 H :    0.127313
  16 H :    0.127431

  Mayer bond orders larger than 0.100000
B(  0-C ,  1-C ) :   0.9247 B(  0-C ,  8-H ) :   0.9743 B(  0-C ,  9-H ) :   0.9757
B(  0-C , 10-H ) :   0.9919 B(  1-C ,  2-C ) :   1.3656 B(  1-C ,  6-C ) :   1.3950
B(  2-C ,  3-C ) :   1.4918 B(  2-C , 11-H ) :   0.9721 B(  3-C ,  4-C ) :   1.3645
B(  3-C , 12-H ) :   0.9675 B(  4-C ,  5-N ) :   1.5025 B(  4-C ,  7-C ) :   0.9272
B(  5-N ,  6-C ) :   1.5127 B(  6-C , 13-H ) :   0.9985 B(  7-C , 14-H ) :   0.9934
B(  7-C , 15-H ) :   0.9738 B(  7-C , 16-H ) :   0.9731

FINAL SINGLE POINT ENERGY      -326.931795986092

DIPOLE MOMENT
-------------

Method             : SCF
Type of density    : Electron Density
Multiplicity       :   1
Irrep              :   0
Energy             :  -326.9415180358924999 Eh
Relativity type    :
Basis              : AO
                                X                 Y                 Z
Electronic contribution:     -0.769521304      -1.068592023       0.005436267
Nuclear contribution   :      1.177641387       1.810473333      -0.006878093
                        -----------------------------------------
Total Dipole Moment    :      0.408120083       0.741881310      -0.001441826
                        -----------------------------------------
Magnitude (a.u.)       :      0.846730157
Magnitude (Debye)      :      2.152217020

Rotational constants in cm-1:             0.185016             0.049370             0.039543
Rotational constants in MHz :          5546.651827          1480.064884          1185.455111

                             ****ORCA TERMINATED NORMALLY****
TOTAL RUN TIME: 0 days 0 hours 2 minutes 26 seconds 282 msec
