                         Program Version 6.0.0  -   RELEASE  -
|  1> ! wb97x-v def2-tzvp def2/J RIJCOSX DEFGRID2 scfconv7 GCP(DFT/TZ) printgap
|  2> %output
|  3>     printlevel normal
|  4> end
|  5> %cpcm
|  6>     smd true
|  7>     smdsolvent "water"
|  8> end
|  9> * xyz 0 1
| 10> C 2.8993201747662347 -0.06113431002516356 -0.0009954756206136714
| 11> C 1.4011704641075142 -0.004132579680797919 0.0004080747796155763
| 12> C 0.7088439857601806 1.211132582944425 0.0002834087372477043
| 13> C -0.6754021761583583 1.2108629358063476 0.00024332085258576866
| 14> C -1.3675153658745247 -0.00571268148690836 0.0002469572695921405
| 15> N -0.7172907468038122 -1.179458945749692 0.0006833286243725676
| 16> C 0.6263447402271807 -1.1592195412676727 0.0008455003706544545
| 17> C -2.866766972093278 -0.027201478035139295 -0.0006921394457692218
| 18> H 3.308776011751269 0.42692846227867554 -0.8919502297125834
| 19> H 3.3119315469024566 0.45879851851891984 0.8700846800685315
| 20> H 3.2535184969935615 -1.0948494714913977 0.016532420570409902
| 21> H 1.2581197046134647 2.149083289206857 0.00036021538196974614
| 22> H -1.2293643638620715 2.144870506242283 0.0003581961840189978
| 23> H 1.116382155736514 -2.132214831410669 0.0015526743742716378
| 24> H -3.2415817307912076 -1.0520049530574134 0.007455284802985279
| 25> H -3.2626450120319572 0.49896416912470326 0.8746784678167888
| 26> H -3.260973884406543 0.48381954263392735 -0.8858325381599892
| 27> *
| 28>
| 29>                          ****END OF INPUT****

CARTESIAN COORDINATES (ANGSTROEM)
---------------------------------
  C      2.899320   -0.061134   -0.000995
  C      1.401170   -0.004133    0.000408
  C      0.708844    1.211133    0.000283
  C     -0.675402    1.210863    0.000243
  C     -1.367515   -0.005713    0.000247
  N     -0.717291   -1.179459    0.000683
  C      0.626345   -1.159220    0.000846
  C     -2.866767   -0.027201   -0.000692
  H      3.308776    0.426928   -0.891950
  H      3.311932    0.458799    0.870085
  H      3.253518   -1.094849    0.016532
  H      1.258120    2.149083    0.000360
  H     -1.229364    2.144871    0.000358
  H      1.116382   -2.132215    0.001553
  H     -3.241582   -1.052005    0.007455
  H     -3.262645    0.498964    0.874678
  H     -3.260974    0.483820   -0.885833

 Total Charge           Charge          ....    0
 Multiplicity           Mult            ....    1
 Number of Electrons    NEL             ....   58
 Basis Dimension        Dim             ....  302

ORBITAL ENERGIES
----------------

  NO   OCC          E(Eh)            E(eV)
   0   2.0000     -16.522921      -449.6115
   1   2.0000     -12.087481      -328.9171
   2   2.0000     -12.074970      -328.5766
   3   2.0000     -12.059810      -328.1641
   4   2.0000     -12.057608      -328.1042
   5   2.0000     -12.048316      -327.8514
   6   2.0000     -12.035901      -327.5135
   7   2.0000     -12.033272      -327.4420
   8   2.0000      -1.515733       -41.2452
   9   2.0000      -1.345666       -36.6174
  10   2.0000      -1.313021       -35.7291
  11   2.0000      -1.230295       -33.4780
  12   2.0000      -1.176728       -32.0204
  13   2.0000      -1.135992       -30.9119
  14   2.0000      -1.102504       -30.0007
  15   2.0000      -0.996224       -27.1086
  16   2.0000      -0.951516       -25.8921
  17   2.0000      -0.906387       -24.6640
  18   2.0000      -0.869137       -23.6504
  19   2.0000      -0.865291       -23.5458
  20   2.0000      -0.854156       -23.2428
  21   2.0000      -0.832824       -22.6623
  22   2.0000      -0.829722       -22.5779
  23   2.0000      -0.814362       -22.1599
  24   2.0000      -0.809203       -22.0195
  25   2.0000      -0.795602       -21.6494
  26   2.0000      -0.758222       -20.6323
  27   2.0000      -0.689476       -18.7616
  28   2.0000      -0.636628       -17.3235
  29   0.0000      -0.286372        -7.7926
  30   0.0000      -0.241492        -6.5713
  31   0.0000      -0.094260        -2.5650
  32   0.0000      -0.043296        -1.1781
  33   0.0000      -0.033368        -0.9080

MULLIKEN ATOMIC CHARGES
-----------------------
   0 C :   -0.382983
   1 C :    0.099003
   2 C :   -0.196491
   3 C :   -0.200520
   4 C :    0.178932
   5 N :   -0.316078
   6 C :   -0.117826
   7 C :   -0.400003
   8 H :    0.142666
   9 H :    0.142736
  10 H :    0.141899
  11 H :    0.168246
  12 H :    0.164509
  13 H :    0.153647
  14 H :    0.133728
  15 H :    0.144310
  16 H :    0.144226
Sum of atomic charges:   -0.0000000

LOEWDIN ATOMIC CHARGES
----------------------
   0 C :   -0.252042
   1 C :   -0.189577
   2 C :   -0.087252
   3 C :   -0.124121
   4 C :   -0.247716
   5 N :    0.099376
   6 C :   -0.190625
   7 C :   -0.259561
   8 H :    0.132922
   9 H :    0.132860
  10 H :    0.131459
  11 H :    0.158488
  12 H :    0.156942
  13 H :    0.143847
  14 H :    0.125916
  15 H :    0.134511
  16 H :    0.134573

  Mayer bond orders larger than 0.100000
B(  0-C ,  1-C ) :   0.9314 B(  0-C ,  8-H ) :   0.9677 B(  0-C ,  9-H ) :   0.9690
B(  0-C , 10-H ) :   0.9882 B(  1-C ,  2-C ) :   1.3499 B(  1-C ,  6-C ) :   1.4206
B(  2-C ,  3-C ) :   1.4754 B(  2-C , 11-H ) :   0.9728 B(  3-C ,  4-C ) :   1.3677
B(  3-C , 12-H ) :   0.9687 B(  4-C ,  5-N ) :   1.4836 B(  4-C ,  7-C ) :   0.9361
B(  5-N ,  6-C ) :   1.4956 B(  6-C , 13-H ) :   0.9751 B(  7-C , 14-H ) :   0.9906
B(  7-C , 15-H ) :   0.9666 B(  7-C , 16-H ) :   0.9660

FINAL SINGLE POINT ENERGY      -326.938160263660

DIPOLE MOMENT
-------------

Method             : SCF
Type of density    : Electron Density
Multiplicity       :   1
Irrep              :   0
Energy             :  -326.9478823134602408 Eh
Relativity type    :
Basis              : AO
                                X                 Y                 Z
Electronic contribution:     -0.577524099      -0.668263226       0.004958131
Nuclear contribution   :      1.177641387       1.810473333      -0.006878093
                        -----------------------------------------
Total Dipole Moment    :      0.600117288       1.142210108      -0.001919962
                        -----------------------------------------
Magnitude (a.u.)       :      1.290266785
Magnitude (Debye)      :      3.279597533

Rotational constants in cm-1:             0.185016             0.049370             0.039543
Rotational constants in MHz :          5546.651827          1480.064884          1185.455111

                             ****ORCA TERMINATED NORMALLY****
TOTAL RUN TIME: 0 days 0 hours 2 minutes 21 seconds 274 msec
