                         Program Version 6.0.0  -   RELEASE  -
|  1> ! r2scan-3c def2/J RI DEFGRID2 scfconv6 printgap
|  2> %output
|  3>     printlevel normal
|  4> end
|  5> * xyz 0 1
|  6> C -1.8838092465 -1.2418570231 -0.0198938867
|  7> C -1.5157934369 0.2347396485 0.0184952956
|  8> C -0.0341244426 0.5099030665 0.0073108094
|  9> O 0.4379538026 1.6315160176 0.0085766378
| 10> O 0.6967928393 -0.5935002858 -0.0022709227
| 11> C 2.122648707 -0.4866716715 -0.0105174015
| 12> H -2.964547652 -1.3487627741 -0.0079110808
| 13> H -1.4955536751 -1.7096895396 -0.9199995287
| 14> H -1.4707516199 -1.7612863037 0.8399259019
| 15> H -1.9173449944 0.7113053094 0.9157347877
| 16> H -1.9415909148 0.7654173809 -0.8359141415
| 17> H 2.4870579962 -1.0444580641 -0.8707206573
| 18> H 2.4972204311 -0.926815313 0.9120655049
| 19> H 2.4162287462 0.5615899512 -0.078397779
| 20> *
| 21>
| 22>                          ****END OF INPUT****

CARTESIAN COORDINATES (ANGSTROEM)
---------------------------------
  C     -1.883809   -1.241857   -0.019894
  C     -1.515793    0.234740    0.018495
  C     -0.034124    0.509903    0.007311
  O      0.437954    1.631516    0.008577
  O      0.696793   -0.593500   -0.002271
  C      2.122649   -0.486672   -0.010517
  H     -2.964548   -1.348763   -0.007911
  H     -1.495554   -1.709690   -0.920000
  H     -1.470752   -1.761286    0.839926
  H     -1.917345    0.711305    0.915735
  H     -1.941591    0.765417   -0.835914
  H      2.487058   -1.044458   -0.870721
  H      2.497220   -0.926815    0.912066
  H      2.416229    0.561590   -0.078398

 Total Charge           Charge          ....    0
 Multiplicity           Mult            ....    1
 Number of Electrons    NEL             ....   48
 Basis Dimension        Dim             ....  164

ORBITAL ENERGIES
----------------

  NO   OCC          E(Eh)            E(eV)
   0   2.0000     -19.002085      -517.0730
   1   2.0000     -18.925686      -514.9941
   2   2.0000     -10.154113      -276.3075
   3   2.0000     -10.086613      -274.4707
   4   2.0000     -10.046424      -273.3771
   5   2.0000     -10.025498      -272.8077
   6   2.0000      -1.075063       -29.2540
   7   2.0000      -0.974472       -26.5167
   8   2.0000      -0.762233       -20.7414
   9   2.0000      -0.694530       -18.8991
  10   2.0000      -0.616230       -16.7685
  11   2.0000      -0.536673       -14.6036
  12   2.0000      -0.469726       -12.7819
  13   2.0000      -0.463312       -12.6074
  14   2.0000      -0.433490       -11.7959
  15   2.0000      -0.423675       -11.5288
  16   2.0000      -0.391963       -10.6659
  17   2.0000      -0.363805        -9.8996
  18   2.0000      -0.361939        -9.8489
  19   2.0000      -0.337927        -9.1955
  20   2.0000      -0.321054        -8.7363
  21   2.0000      -0.316952        -8.6247
  22   2.0000      -0.270875        -7.3709
  23   2.0000      -0.235304        -6.4029
  24   0.0000      -0.013466        -0.3664
  25   0.0000       0.062258         1.6941
  26   0.0000       0.098534         2.6813
  27   0.0000       0.115336         3.1385
  28   0.0000       0.125412         3.4126

MULLIKEN ATOMIC CHARGES
-----------------------
   0 C :   -0.463002
   1 C :   -0.291994
   2 C :    0.381580
   3 O :   -0.431709
   4 O :   -0.163488
   5 C :   -0.307657
   6 H :    0.145795
   7 H :    0.153815
   8 H :    0.154367
   9 H :    0.166962
  10 H :    0.166870
  11 H :    0.148227
  12 H :    0.148515
  13 H :    0.191719
Sum of atomic charges:    0.0000000

LOEWDIN ATOMIC CHARGES
----------------------
   0 C :   -0.401075
   1 C :   -0.235519
   2 C :    0.360546
   3 O :   -0.446520
   4 O :   -0.609077
   5 C :   -0.042892
   6 H :    0.150094
   7 H :    0.159290
   8 H :    0.159878
   9 H :    0.181745
  10 H :    0.181567
  11 H :    0.173963
  12 H :    0.173544
  13 H :    0.194454

  Mayer bond orders larger than 0.100000
B(  0-C ,  1-C ) :   0.9052 B(  0-C ,  6-H ) :   0.9660 B(  0-C ,  7-H ) :   0.9785
B(  0-C ,  8-H ) :   0.9778 B(  1-C ,  2-C ) :   1.0224 B(  1-C ,  9-H ) :   0.9395
B(  1-C , 10-H ) :   0.9423 B(  2-C ,  3-O ) :   1.8542 B(  2-C ,  4-O ) :   1.0909
B(  4-O ,  5-C ) :   0.8359 B(  5-C , 11-H ) :   0.9652 B(  5-C , 12-H ) :   0.9630
B(  5-C , 13-H ) :   0.9672

Dispersion correction           -0.003009894
FINAL SINGLE POINT ENERGY      -307.629596858288

DIPOLE MOMENT
-------------

Method             : SCF
Type of density    : Electron Density
Multiplicity       :   1
Irrep              :   0
Energy             :  -307.6361582638702430 Eh
Relativity type    :
Basis              : AO
                                X                 Y                 Z
Electronic contribution:      2.201243178       3.595228923       0.040124969
Nuclear contribution   :     -2.224704605      -4.443436672      -0.042327708
                        -----------------------------------------
Total Dipole Moment    :     -0.023461427      -0.848207749      -0.002202739
                        -----------------------------------------
Magnitude (a.u.)       :      0.848535018
Magnitude (Debye)      :      2.156804611

Rotational constants in cm-1:             0.196873             0.092172             0.065070
Rotational constants in MHz :          5902.116394          2763.243268          1950.748010

                             ****ORCA TERMINATED NORMALLY****
TOTAL RUN TIME: 0 days 0 hours 0 minutes 14 seconds 282 msec
