                         Program Version 6.0.0  -   RELEASE  -
|  1> ! wb97x-v def2-tzvp def2/J RIJCOSX DEFGRID2 scfconv7 GCP(DFT/TZ) printgap
|  2> %output
|  3>     printlevel normal
|  4> end
|  5> * xyz 0 1
|  6> C 1.1088245345786174 -1.8591262782065998 -0.0040214002389149855
|  7> C 2.1127498559174143 -0.9009812224343913 0.020243837139697584
|  8> C 1.8031240376699078 0.47245401514754276 0.04100032380344474
|  9> C 0.4552527187525983 0.8539630988450306 0.029020920980855576
| 10> C -0.5203189154895942 -0.13426312492475098 0.006053690814931422
| 11> C -0.23363828057052122 -1.4961717321949022 -0.009467939565753378
| 12> N -1.9246660394389232 0.28471529487066244 -0.006534362831184537
| 13> O -2.796179940235033 -0.5854879018852677 -0.011803851178977517
| 14> O -2.178875776771049 1.4894481654623677 -0.010636635639664582
| 15> N 2.80213363406079 1.4193132921029488 0.12938909152703915
| 16> H 1.3771982690321591 -2.9100937375617364 -0.021655668107993915
| 17> H 3.1546593255382853 -1.207531454389211 0.02316167991649368
| 18> H 0.1798962816301481 1.9015590163247877 0.0386616917387696
| 19> H -1.0220278414923998 -2.2358974281702824 -0.028888026847887414
| 20> H 3.7119009233066285 1.120148324674939 -0.19184569399875215
| 21> H 2.5531231225977775 2.3474372827678387 -0.18191990476907438
| 22> *
| 23>
| 24>                          ****END OF INPUT****

CARTESIAN COORDINATES (ANGSTROEM)
---------------------------------
  C      1.108825   -1.859126   -0.004021
  C      2.112750   -0.900981    0.020244
  C      1.803124    0.472454    0.041000
  C      0.455253    0.853963    0.029021
  C     -0.520319   -0.134263    0.006054
  C     -0.233638   -1.496172   -0.009468
  N     -1.924666    0.284715   -0.006534
  O     -2.796180   -0.585488   -0.011804
  O     -2.178876    1.489448   -0.010637
  N      2.802134    1.419313    0.129389
  H      1.377198   -2.910094   -0.021656
  H      3.154659   -1.207531    0.023162
  H      0.179896    1.901559    0.038662
  H     -1.022028   -2.235897   -0.028888
  H      3.711901    1.120148   -0.191846
  H      2.553123    2.347437   -0.181920

 Total Charge           Charge          ....    0
 Multiplicity           Mult            ....    1
 Number of Electrons    NEL             ....   72
 Basis Dimension        Dim             ....  346

ORBITAL ENERGIES
----------------

  NO   OCC          E(Eh)            E(eV)
   0   2.0000     -21.704471      -590.6087
   1   2.0000     -21.703718      -590.5882
   2   2.0000     -16.769891      -456.3319
   3   2.0000     -16.553782      -450.4513
   4   2.0000     -12.120024      -329.8026
   5   2.0000     -12.119324      -329.7836
   6   2.0000     -12.076830      -328.6272
   7   2.0000     -12.075221      -328.5835
   8   2.0000     -12.072934      -328.5212
   9   2.0000     -12.070206      -328.4470
  10   2.0000      -1.896287       -51.6006
  11   2.0000      -1.740763       -47.3686
  12   2.0000      -1.518246       -41.3136
  13   2.0000      -1.429809       -38.9071
  14   2.0000      -1.359966       -37.0066
  15   2.0000      -1.295061       -35.2404
  16   2.0000      -1.266014       -34.4500
  17   2.0000      -1.176541       -32.0153
  18   2.0000      -1.152121       -31.3508
  19   2.0000      -1.127643       -30.6847
  20   2.0000      -1.103652       -30.0319
  21   2.0000      -1.070386       -29.1267
  22   2.0000      -1.032834       -28.1048
  23   2.0000      -1.013246       -27.5718
  24   2.0000      -0.971471       -26.4351
  25   2.0000      -0.962049       -26.1787
  26   2.0000      -0.918568       -24.9955
  27   2.0000      -0.908506       -24.7217
  28   2.0000      -0.896591       -24.3975
  29   2.0000      -0.889735       -24.2109
  30   2.0000      -0.864939       -23.5362
  31   2.0000      -0.849997       -23.1296
  32   2.0000      -0.844399       -22.9773
  33   2.0000      -0.781406       -21.2631
  34   2.0000      -0.679543       -18.4913
  35   2.0000      -0.643993       -17.5239
  36   0.0000      -0.479914       -13.0591
  37   0.0000      -0.260510        -7.0889
  38   0.0000      -0.259611        -7.0644
  39   0.0000      -0.229866        -6.2550
  40   0.0000      -0.123394        -3.3577

MULLIKEN ATOMIC CHARGES
-----------------------
   0 C :   -0.048177
   1 C :   -0.246753
   2 C :    0.327657
   3 C :   -0.283108
   4 C :    0.060670
   5 C :   -0.234900
   6 N :    0.453065
   7 O :   -0.311436
   8 O :   -0.314630
   9 N :   -0.437203
  10 H :    0.128939
  11 H :    0.119096
  12 H :    0.158089
  13 H :    0.161578
  14 H :    0.231922
  15 H :    0.235191
Sum of atomic charges:    0.0000000

LOEWDIN ATOMIC CHARGES
----------------------
   0 C :   -0.126651
   1 C :   -0.112730
   2 C :   -0.234837
   3 C :   -0.085270
   4 C :   -0.160728
   5 C :   -0.113899
   6 N :    0.001266
   7 O :   -0.031906
   8 O :   -0.035827
   9 N :   -0.033920
  10 H :    0.148058
  11 H :    0.144102
  12 H :    0.155660
  13 H :    0.155011
  14 H :    0.165332
  15 H :    0.166340

  Mayer bond orders larger than 0.100000
B(  0-C ,  1-C ) :   1.4860 B(  0-C ,  5-C ) :   1.4151 B(  0-C , 10-H ) :   0.9692
B(  1-C ,  2-C ) :   1.3534 B(  1-C , 11-H ) :   0.9594 B(  2-C ,  3-C ) :   1.3564
B(  2-C ,  9-N ) :   1.1025 B(  3-C ,  4-C ) :   1.5117 B(  3-C , 12-H ) :   0.9074
B(  4-C ,  5-C ) :   1.4280 B(  4-C ,  6-N ) :   0.9865 B(  5-C , 13-H ) :   0.9364
B(  6-N ,  7-O ) :   1.6481 B(  6-N ,  8-O ) :   1.6476 B(  7-O ,  8-O ) :   0.2007
B(  9-N , 14-H ) :   0.9249 B(  9-N , 15-H ) :   0.9239

FINAL SINGLE POINT ENERGY      -492.143299812890

DIPOLE MOMENT
-------------

Method             : SCF
Type of density    : Electron Density
Multiplicity       :   1
Irrep              :   0
Energy             :  -492.1520209254902625 Eh
Relativity type    :
Basis              : AO
                                X                 Y                 Z
Electronic contribution:     -7.047457098       0.801001389       0.081180530
Nuclear contribution   :      9.291373865      -0.922741341      -0.421467039
                        -----------------------------------------
Total Dipole Moment    :      2.243916767      -0.121739952      -0.340286508
                        -----------------------------------------
Magnitude (a.u.)       :      2.272834789
Magnitude (Debye)      :      5.777086922

Rotational constants in cm-1:             0.090690             0.033021             0.024221
Rotational constants in MHz :          2718.826974           989.936270           726.128957

                             ****ORCA TERMINATED NORMALLY****
TOTAL RUN TIME: 0 days 0 hours 3 minutes 14 seconds 517 msec
