                         Program Version 6.0.0  -   RELEASE  -
|  1> ! wb97x-v def2-tzvp def2/J RIJCOSX DEFGRID2 scfconv7 GCP(DFT/TZ) printgap
|  2> %output
|  3>     printlevel normal
|  4> end
|  5> %cpcm
|  6>     smd true
|  7>     smdsolvent "water"
|  8> end
|  9> * xyz 0 1
| 10> C 1.1088245345786174 -1.8591262782065998 -0.0040214002389149855
| 11> C 2.1127498559174143 -0.9009812224343913 0.020243837139697584
| 12> C 1.8031240376699078 0.47245401514754276 0.04100032380344474
| 13> C 0.4552527187525983 0.8539630988450306 0.029020920980855576
| 14> C -0.5203189154895942 -0.13426312492475098 0.006053690814931422
| 15> C -0.23363828057052122 -1.4961717321949022 -0.009467939565753378
| 16> N -1.9246660394389232 0.28471529487066244 -0.006534362831184537
| 17> O -2.796179940235033 -0.5854879018852677 -0.011803851178977517
| 18> O -2.178875776771049 1.4894481654623677 -0.010636635639664582
| 19> N 2.80213363406079 1.4193132921029488 0.12938909152703915
| 20> H 1.3771982690321591 -2.9100937375617364 -0.021655668107993915
| 21> H 3.1546593255382853 -1.207531454389211 0.02316167991649368
| 22> H 0.1798962816301481 1.9015590163247877 0.0386616917387696
| 23> H -1.0220278414923998 -2.2358974281702824 -0.028888026847887414
| 24> H 3.7119009233066285 1.120148324674939 -0.19184569399875215
| 25> H 2.5531231225977775 2.3474372827678387 -0.18191990476907438
| 26> *
| 27>
| 28>                          ****END OF INPUT****

CARTESIAN COORDINATES (ANGSTROEM)
---------------------------------
  C      1.108825   -1.859126   -0.004021
  C      2.112750   -0.900981    0.020244
  C      1.803124    0.472454    0.041000
  C      0.455253    0.853963    0.029021
  C     -0.520319   -0.134263    0.006054
  C     -0.233638   -1.496172   -0.009468
  N     -1.924666    0.284715   -0.006534
  O     -2.796180   -0.585488   -0.011804
  O     -2.178876    1.489448   -0.010637
  N      2.802134    1.419313    0.129389
  H      1.377198   -2.910094   -0.021656
  H      3.154659   -1.207531    0.023162
  H      0.179896    1.901559    0.038662
  H     -1.022028   -2.235897   -0.028888
  H      3.711901    1.120148   -0.191846
  H      2.553123    2.347437   -0.181920

 Total Charge           Charge          ....    0
 Multiplicity           Mult            ....    1
 Number of Electrons    NEL             ....   72
 Basis Dimension        Dim             ....  346

ORBITAL ENERGIES
----------------

  NO   OCC          E(Eh)            E(eV)
   0   2.0000     -21.721106      -591.0613
   1   2.0000     -21.720912      -591.0561
   2   2.0000     -16.785452      -456.7554
   3   2.0000     -16.528564      -449.7651
   4   2.0000     -12.114410      -329.6499
   5   2.0000     -12.106172      -329.4257
   6   2.0000     -12.064672      -328.2964
   7   2.0000     -12.063658      -328.2688
   8   2.0000     -12.061549      -328.2114
   9   2.0000     -12.058542      -328.1296
  10   2.0000      -1.913140       -52.0592
  11   2.0000      -1.758341       -47.8469
  12   2.0000      -1.495701       -40.7001
  13   2.0000      -1.428972       -38.8843
  14   2.0000      -1.355962       -36.8976
  15   2.0000      -1.283950       -34.9380
  16   2.0000      -1.264346       -34.4046
  17   2.0000      -1.184831       -32.2409
  18   2.0000      -1.160086       -31.5675
  19   2.0000      -1.126216       -30.6459
  20   2.0000      -1.093154       -29.7462
  21   2.0000      -1.086226       -29.5577
  22   2.0000      -1.013756       -27.5857
  23   2.0000      -0.997831       -27.1524
  24   2.0000      -0.958531       -26.0830
  25   2.0000      -0.946746       -25.7623
  26   2.0000      -0.930430       -25.3183
  27   2.0000      -0.920036       -25.0355
  28   2.0000      -0.910897       -24.7868
  29   2.0000      -0.891869       -24.2690
  30   2.0000      -0.852225       -23.1902
  31   2.0000      -0.833409       -22.6782
  32   2.0000      -0.829836       -22.5810
  33   2.0000      -0.770821       -20.9751
  34   2.0000      -0.671114       -18.2619
  35   2.0000      -0.631391       -17.1810
  36   0.0000      -0.492158       -13.3923
  37   0.0000      -0.250746        -6.8232
  38   0.0000      -0.249452        -6.7879
  39   0.0000      -0.238485        -6.4895
  40   0.0000      -0.129524        -3.5245

MULLIKEN ATOMIC CHARGES
-----------------------
   0 C :   -0.083445
   1 C :   -0.286238
   2 C :    0.274326
   3 C :   -0.313274
   4 C :    0.131929
   5 C :   -0.268176
   6 N :    0.510362
   7 O :   -0.374087
   8 O :   -0.373125
   9 N :   -0.484639
  10 H :    0.170728
  11 H :    0.168230
  12 H :    0.183804
  13 H :    0.180597
  14 H :    0.281717
  15 H :    0.281289
Sum of atomic charges:    0.0000000

LOEWDIN ATOMIC CHARGES
----------------------
   0 C :   -0.128965
   1 C :   -0.102449
   2 C :   -0.237636
   3 C :   -0.083491
   4 C :   -0.169702
   5 C :   -0.121543
   6 N :    0.014496
   7 O :   -0.068540
   8 O :   -0.068307
   9 N :   -0.035118
  10 H :    0.158703
  11 H :    0.158947
  12 H :    0.163411
  13 H :    0.158664
  14 H :    0.180930
  15 H :    0.180600

  Mayer bond orders larger than 0.100000
B(  0-C ,  1-C ) :   1.4530 B(  0-C ,  5-C ) :   1.4154 B(  0-C , 10-H ) :   0.9686
B(  1-C ,  2-C ) :   1.3336 B(  1-C , 11-H ) :   0.9685 B(  2-C ,  3-C ) :   1.3831
B(  2-C ,  9-N ) :   1.1526 B(  3-C ,  4-C ) :   1.4240 B(  3-C , 12-H ) :   0.9254
B(  4-C ,  5-C ) :   1.3614 B(  4-C ,  6-N ) :   0.9972 B(  5-C , 13-H ) :   0.9495
B(  6-N ,  7-O ) :   1.6082 B(  6-N ,  8-O ) :   1.6139 B(  7-O ,  8-O ) :   0.1876
B(  9-N , 14-H ) :   0.9032 B(  9-N , 15-H ) :   0.9036

FINAL SINGLE POINT ENERGY      -492.154300562709

DIPOLE MOMENT
-------------

Method             : SCF
Type of density    : Electron Density
Multiplicity       :   1
Irrep              :   0
Energy             :  -492.1630216753090394 Eh
Relativity type    :
Basis              : AO
                                X                 Y                 Z
Electronic contribution:     -6.259378728       0.765851644      -0.035292624
Nuclear contribution   :      9.291373865      -0.922741341      -0.421467039
                        -----------------------------------------
Total Dipole Moment    :      3.031995138      -0.156889697      -0.456759663
                        -----------------------------------------
Magnitude (a.u.)       :      3.070217953
Magnitude (Debye)      :      7.803873853

Rotational constants in cm-1:             0.090690             0.033021             0.024221
Rotational constants in MHz :          2718.826974           989.936270           726.128957

                             ****ORCA TERMINATED NORMALLY****
TOTAL RUN TIME: 0 days 0 hours 3 minutes 23 seconds 219 msec
