                         Program Version 6.0.0  -   RELEASE  -
|  1> ! wb97x-v def2-tzvp def2/J RIJCOSX DEFGRID2 scfconv7 GCP(DFT/TZ) printgap
|  2> %output
|  3>     printlevel normal
|  4> end
|  5> * xyz 0 1
|  6> C -2.751870468139057 -0.2851722860480378 -6.098524593455532e-05
|  7> C -2.3760100954882795 1.0739109634725208 9.677541339790363e-07
|  8> C -1.047111327299427 1.428608435570251 2.947801314674852e-05
|  9> C -0.030165897010017366 0.4425036821935556 -3.999134667288935e-06
| 10> C -0.4106626361520546 -0.9416614080713843 -3.3386001786219124e-05
| 11> C -1.7902296289789466 -1.2663822900236164 -7.195848666010022e-05
| 12> C 0.583210238444166 -1.9493715852934523 -1.3007845665490094e-05
| 13> C 1.9137655626939665 -1.6039282024406718 2.7767402976072684e-05
| 14> C 2.308975279217223 -0.2541843556053167 2.4077220586118937e-05
| 15> C 1.3627591890179802 0.7481434931958031 -3.469269171696333e-06
| 16> O 1.832366687331764 2.0402413778868884 -1.2249383478461404e-05
| 17> H -3.803826106175005 -0.5522570657826416 -9.453480054244332e-05
| 18> H -3.1392765787164376 1.84515909260435 3.224500149472047e-05
| 19> H -0.7958466961431773 2.484998023616114 9.293620890564297e-05
| 20> H -2.0731051134658487 -2.315258251926167 -0.0001078903765542241
| 21> H 0.2756715120370947 -2.9903958532826564 -2.7234120937779516e-05
| 22> H 2.678266216550271 -2.374474849243352 5.139423545116638e-05
| 23> H 3.3604542921163136 0.013543184769464702 3.16309223673978e-05
| 24> H 1.1032526938133218 2.673887132230761 -0.0002161349894557061
| 25> *
| 26>
| 27>                          ****END OF INPUT****

CARTESIAN COORDINATES (ANGSTROEM)
---------------------------------
  C     -2.751870   -0.285172   -0.000061
  C     -2.376010    1.073911    0.000001
  C     -1.047111    1.428608    0.000029
  C     -0.030166    0.442504   -0.000004
  C     -0.410663   -0.941661   -0.000033
  C     -1.790230   -1.266382   -0.000072
  C      0.583210   -1.949372   -0.000013
  C      1.913766   -1.603928    0.000028
  C      2.308975   -0.254184    0.000024
  C      1.362759    0.748143   -0.000003
  O      1.832367    2.040241   -0.000012
  H     -3.803826   -0.552257   -0.000095
  H     -3.139277    1.845159    0.000032
  H     -0.795847    2.484998    0.000093
  H     -2.073105   -2.315258   -0.000108
  H      0.275672   -2.990396   -0.000027
  H      2.678266   -2.374475    0.000051
  H      3.360454    0.013543    0.000032
  H      1.103253    2.673887   -0.000216

 Total Charge           Charge          ....    0
 Multiplicity           Mult            ....    1
 Number of Electrons    NEL             ....   76
 Basis Dimension        Dim             ....  389

ORBITAL ENERGIES
----------------

  NO   OCC          E(Eh)            E(eV)
   0   2.0000     -21.706286      -590.6581
   1   2.0000     -12.118793      -329.7691
   2   2.0000     -12.070332      -328.4504
   3   2.0000     -12.068060      -328.3886
   4   2.0000     -12.066456      -328.3450
   5   2.0000     -12.060800      -328.1911
   6   2.0000     -12.059462      -328.1546
   7   2.0000     -12.057355      -328.0973
   8   2.0000     -12.055812      -328.0553
   9   2.0000     -12.046887      -327.8125
  10   2.0000     -12.045636      -327.7784
  11   2.0000      -1.719877       -46.8002
  12   2.0000      -1.407450       -38.2987
  13   2.0000      -1.355368       -36.8814
  14   2.0000      -1.309128       -35.6232
  15   2.0000      -1.278368       -34.7862
  16   2.0000      -1.259606       -34.2756
  17   2.0000      -1.162537       -31.6342
  18   2.0000      -1.139564       -31.0091
  19   2.0000      -1.120084       -30.4790
  20   2.0000      -1.063657       -28.9436
  21   2.0000      -1.026528       -27.9332
  22   2.0000      -0.992611       -27.0103
  23   2.0000      -0.968014       -26.3410
  24   2.0000      -0.960891       -26.1472
  25   2.0000      -0.950534       -25.8654
  26   2.0000      -0.915881       -24.9224
  27   2.0000      -0.911503       -24.8033
  28   2.0000      -0.896832       -24.4040
  29   2.0000      -0.865893       -23.5622
  30   2.0000      -0.844354       -22.9760
  31   2.0000      -0.823693       -22.4138
  32   2.0000      -0.812663       -22.1137
  33   2.0000      -0.800558       -21.7843
  34   2.0000      -0.730305       -19.8726
  35   2.0000      -0.684492       -18.6260
  36   2.0000      -0.635550       -17.2942
  37   2.0000      -0.600952       -16.3527
  38   0.0000      -0.292205        -7.9513
  39   0.0000      -0.262671        -7.1477
  40   0.0000      -0.206270        -5.6129
  41   0.0000      -0.155050        -4.2191
  42   0.0000      -0.133987        -3.6460

MULLIKEN ATOMIC CHARGES
-----------------------
   0 C :   -0.115588
   1 C :   -0.141526
   2 C :   -0.217799
   3 C :    0.142124
   4 C :    0.152325
   5 C :   -0.185519
   6 C :   -0.243378
   7 C :   -0.070346
   8 C :   -0.232952
   9 C :    0.197682
  10 O :   -0.375307
  11 H :    0.119742
  12 H :    0.119548
  13 H :    0.076911
  14 H :    0.116161
  15 H :    0.111418
  16 H :    0.117598
  17 H :    0.120649
  18 H :    0.308255
Sum of atomic charges:    0.0000000

LOEWDIN ATOMIC CHARGES
----------------------
   0 C :   -0.139015
   1 C :   -0.139993
   2 C :   -0.115613
   3 C :   -0.080109
   4 C :   -0.087861
   5 C :   -0.094718
   6 C :   -0.122391
   7 C :   -0.135605
   8 C :   -0.127166
   9 C :   -0.217631
  10 O :    0.077024
  11 H :    0.143071
  12 H :    0.142900
  13 H :    0.135757
  14 H :    0.146904
  15 H :    0.143986
  16 H :    0.143933
  17 H :    0.148087
  18 H :    0.178441

  Mayer bond orders larger than 0.100000
B(  0-C ,  1-C ) :   1.2813 B(  0-C ,  5-C ) :   1.5671 B(  0-C , 11-H ) :   0.9743
B(  1-C ,  2-C ) :   1.6186 B(  1-C , 12-H ) :   0.9720 B(  2-C ,  3-C ) :   1.1454
B(  2-C , 13-H ) :   0.9794 B(  3-C ,  4-C ) :   1.2527 B(  3-C ,  9-C ) :   1.1010
B(  4-C ,  5-C ) :   1.2303 B(  4-C ,  6-C ) :   1.2229 B(  5-C , 14-H ) :   0.9795
B(  6-C ,  7-C ) :   1.5720 B(  6-C , 15-H ) :   0.9829 B(  7-C ,  8-C ) :   1.2886
B(  7-C , 16-H ) :   0.9795 B(  8-C ,  9-C ) :   1.5567 B(  8-C , 17-H ) :   0.9729
B(  9-C , 10-O ) :   1.2089 B( 10-O , 18-H ) :   0.8871

FINAL SINGLE POINT ENERGY      -461.133309790232

DIPOLE MOMENT
-------------

Method             : SCF
Type of density    : Electron Density
Multiplicity       :   1
Irrep              :   0
Energy             :  -461.1430135765316436 Eh
Relativity type    :
Basis              : AO
                                X                 Y                 Z
Electronic contribution:      1.655802342       1.213554410       0.000027570
Nuclear contribution   :     -2.220832798      -1.114644861      -0.000134887
                        -----------------------------------------
Total Dipole Moment    :     -0.565030455       0.098909550      -0.000107316
                        -----------------------------------------
Magnitude (a.u.)       :      0.573622285
Magnitude (Debye)      :      1.458031977

Rotational constants in cm-1:             0.064963             0.037459             0.023759
Rotational constants in MHz :          1947.534729          1123.005984           712.282741

                             ****ORCA TERMINATED NORMALLY****
TOTAL RUN TIME: 0 days 0 hours 4 minutes 28 seconds 66 msec
