                         Program Version 6.0.0  -   RELEASE  -
|  1> ! wb97x-v def2-tzvp def2/J RIJCOSX DEFGRID2 scfconv7 GCP(DFT/TZ) printgap
|  2> %output
|  3>     printlevel normal
|  4> end
|  5> %cpcm
|  6>     smd true
|  7>     smdsolvent "water"
|  8> end
|  9> * xyz 0 1
| 10> C -2.751870468139057 -0.2851722860480378 -6.098524593455532e-05
| 11> C -2.3760100954882795 1.0739109634725208 9.677541339790363e-07
| 12> C -1.047111327299427 1.428608435570251 2.947801314674852e-05
| 13> C -0.030165897010017366 0.4425036821935556 -3.999134667288935e-06
| 14> C -0.4106626361520546 -0.9416614080713843 -3.3386001786219124e-05
| 15> C -1.7902296289789466 -1.2663822900236164 -7.195848666010022e-05
| 16> C 0.583210238444166 -1.9493715852934523 -1.3007845665490094e-05
| 17> C 1.9137655626939665 -1.6039282024406718 2.7767402976072684e-05
| 18> C 2.308975279217223 -0.2541843556053167 2.4077220586118937e-05
| 19> C 1.3627591890179802 0.7481434931958031 -3.469269171696333e-06
| 20> O 1.832366687331764 2.0402413778868884 -1.2249383478461404e-05
| 21> H -3.803826106175005 -0.5522570657826416 -9.453480054244332e-05
| 22> H -3.1392765787164376 1.84515909260435 3.224500149472047e-05
| 23> H -0.7958466961431773 2.484998023616114 9.293620890564297e-05
| 24> H -2.0731051134658487 -2.315258251926167 -0.0001078903765542241
| 25> H 0.2756715120370947 -2.9903958532826564 -2.7234120937779516e-05
| 26> H 2.678266216550271 -2.374474849243352 5.139423545116638e-05
| 27> H 3.3604542921163136 0.013543184769464702 3.16309223673978e-05
| 28> H 1.1032526938133218 2.673887132230761 -0.0002161349894557061
| 29> *
| 30>
| 31>                          ****END OF INPUT****

CARTESIAN COORDINATES (ANGSTROEM)
---------------------------------
  C     -2.751870   -0.285172   -0.000061
  C     -2.376010    1.073911    0.000001
  C     -1.047111    1.428608    0.000029
  C     -0.030166    0.442504   -0.000004
  C     -0.410663   -0.941661   -0.000033
  C     -1.790230   -1.266382   -0.000072
  C      0.583210   -1.949372   -0.000013
  C      1.913766   -1.603928    0.000028
  C      2.308975   -0.254184    0.000024
  C      1.362759    0.748143   -0.000003
  O      1.832367    2.040241   -0.000012
  H     -3.803826   -0.552257   -0.000095
  H     -3.139277    1.845159    0.000032
  H     -0.795847    2.484998    0.000093
  H     -2.073105   -2.315258   -0.000108
  H      0.275672   -2.990396   -0.000027
  H      2.678266   -2.374475    0.000051
  H      3.360454    0.013543    0.000032
  H      1.103253    2.673887   -0.000216

 Total Charge           Charge          ....    0
 Multiplicity           Mult            ....    1
 Number of Electrons    NEL             ....   76
 Basis Dimension        Dim             ....  389

ORBITAL ENERGIES
----------------

  NO   OCC          E(Eh)            E(eV)
   0   2.0000     -21.704702      -590.6150
   1   2.0000     -12.119173      -329.7795
   2   2.0000     -12.068287      -328.3948
   3   2.0000     -12.066107      -328.3355
   4   2.0000     -12.058141      -328.1187
   5   2.0000     -12.053947      -328.0046
   6   2.0000     -12.053587      -327.9948
   7   2.0000     -12.052734      -327.9716
   8   2.0000     -12.051103      -327.9272
   9   2.0000     -12.044983      -327.7607
  10   2.0000     -12.044367      -327.7439
  11   2.0000      -1.718616       -46.7659
  12   2.0000      -1.405674       -38.2503
  13   2.0000      -1.353068       -36.8189
  14   2.0000      -1.306366       -35.5480
  15   2.0000      -1.276020       -34.7223
  16   2.0000      -1.256359       -34.1873
  17   2.0000      -1.160187       -31.5703
  18   2.0000      -1.136460       -30.9247
  19   2.0000      -1.116206       -30.3735
  20   2.0000      -1.060598       -28.8603
  21   2.0000      -1.024710       -27.8838
  22   2.0000      -0.989676       -26.9305
  23   2.0000      -0.964516       -26.2458
  24   2.0000      -0.958022       -26.0691
  25   2.0000      -0.951558       -25.8932
  26   2.0000      -0.911386       -24.8001
  27   2.0000      -0.906849       -24.6766
  28   2.0000      -0.888303       -24.1719
  29   2.0000      -0.859520       -23.3887
  30   2.0000      -0.839954       -22.8563
  31   2.0000      -0.818990       -22.2859
  32   2.0000      -0.805512       -21.9191
  33   2.0000      -0.799977       -21.7685
  34   2.0000      -0.729231       -19.8434
  35   2.0000      -0.682915       -18.5831
  36   2.0000      -0.634947       -17.2778
  37   2.0000      -0.599470       -16.3124
  38   0.0000      -0.290216        -7.8972
  39   0.0000      -0.261770        -7.1231
  40   0.0000      -0.204460        -5.5636
  41   0.0000      -0.151536        -4.1235
  42   0.0000      -0.131664        -3.5828

MULLIKEN ATOMIC CHARGES
-----------------------
   0 C :   -0.150205
   1 C :   -0.166774
   2 C :   -0.261863
   3 C :    0.098880
   4 C :    0.136270
   5 C :   -0.228514
   6 C :   -0.293830
   7 C :   -0.115217
   8 C :   -0.287920
   9 C :    0.233311
  10 O :   -0.446256
  11 H :    0.163143
  12 H :    0.164268
  13 H :    0.149276
  14 H :    0.161248
  15 H :    0.159013
  16 H :    0.161742
  17 H :    0.154071
  18 H :    0.369359
Sum of atomic charges:    0.0000000

LOEWDIN ATOMIC CHARGES
----------------------
   0 C :   -0.143817
   1 C :   -0.145262
   2 C :   -0.110877
   3 C :   -0.088431
   4 C :   -0.100952
   5 C :   -0.103869
   6 C :   -0.130924
   7 C :   -0.145865
   8 C :   -0.142132
   9 C :   -0.227043
  10 O :    0.055473
  11 H :    0.152969
  12 H :    0.153141
  13 H :    0.155120
  14 H :    0.157377
  15 H :    0.154585
  16 H :    0.153723
  17 H :    0.154658
  18 H :    0.202125

  Mayer bond orders larger than 0.100000
B(  0-C ,  1-C ) :   1.2553 B(  0-C ,  5-C ) :   1.5456 B(  0-C , 11-H ) :   0.9778
B(  1-C ,  2-C ) :   1.5689 B(  1-C , 12-H ) :   0.9766 B(  2-C ,  3-C ) :   1.1677
B(  2-C , 13-H ) :   0.9877 B(  3-C ,  4-C ) :   1.2120 B(  3-C ,  9-C ) :   1.1013
B(  4-C ,  5-C ) :   1.2160 B(  4-C ,  6-C ) :   1.2016 B(  5-C , 14-H ) :   0.9857
B(  6-C ,  7-C ) :   1.5537 B(  6-C , 15-H ) :   0.9886 B(  7-C ,  8-C ) :   1.2775
B(  7-C , 16-H ) :   0.9810 B(  8-C ,  9-C ) :   1.5235 B(  8-C , 17-H ) :   0.9839
B(  9-C , 10-O ) :   1.1804 B( 10-O , 18-H ) :   0.8486

FINAL SINGLE POINT ENERGY      -461.144070583220

DIPOLE MOMENT
-------------

Method             : SCF
Type of density    : Electron Density
Multiplicity       :   1
Irrep              :   0
Energy             :  -461.1537743695196241 Eh
Relativity type    :
Basis              : AO
                                X                 Y                 Z
Electronic contribution:      1.382520260       1.343407015      -0.000018377
Nuclear contribution   :     -2.220832798      -1.114644861      -0.000134887
                        -----------------------------------------
Total Dipole Moment    :     -0.838312538       0.228762154      -0.000153264
                        -----------------------------------------
Magnitude (a.u.)       :      0.868964935
Magnitude (Debye)      :      2.208733334

Rotational constants in cm-1:             0.064963             0.037459             0.023759
Rotational constants in MHz :          1947.534729          1123.005984           712.282741

                             ****ORCA TERMINATED NORMALLY****
TOTAL RUN TIME: 0 days 0 hours 4 minutes 35 seconds 967 msec
