                         Program Version 6.0.0  -   RELEASE  -
|  1> ! r2scan-3c def2/J RI DEFGRID2 scfconv6 printgap
|  2> %output
|  3>     printlevel normal
|  4> end
|  5> * xyz 0 1
|  6> C -3.6813718285 -0.2693545979 0.127127073
|  7> C -2.1999494906 -0.2932723049 -0.2373494742
|  8> H -2.1021014269 -0.5614932917 -1.2954467734
|  9> C -1.4342343954 -1.3153184566 0.5996118227
| 10> C 0.0428526499 -1.3193475846 0.2244744497
| 11> C 0.6748370705 0.0593717372 0.4737541463
| 12> H 0.5141596715 0.3096436999 1.529384136
| 13> C -0.1010111227 1.0845792072 -0.3223286049
| 14> O 0.408659085 1.8424812271 -1.124984042
| 15> C -1.5793745879 1.0974338451 -0.0368174413
| 16> C 2.1889818584 0.1320369725 0.2009773935
| 17> C 2.9823244772 -0.5501042 1.3137088706
| 18> C 2.5759024317 -0.4463033299 -1.1589773436
| 19> H -3.8104234719 -0.0134424931 1.176104424
| 20> H -4.2117880265 0.4643303284 -0.4745094104
| 21> H -4.1281487265 -1.2446958801 -0.0474685898
| 22> H -1.5476773131 -1.0768971447 1.6590872486
| 23> H -1.8533884937 -2.3087699361 0.4319226312
| 24> H 0.574164863 -2.0671458453 0.8130228844
| 25> H 0.1432461286 -1.5795445426 -0.830128219
| 26> H -1.7236173012 1.4022599868 1.001875058
| 27> H -2.0603042015 1.8322288537 -0.6850228709
| 28> H 2.4498925209 1.1976732143 0.1928352281
| 29> H 2.7700193759 -1.6157982785 1.3419882028
| 30> H 2.7395813886 -0.1202974716 2.2826525914
| 31> H 4.047895032 -0.4222857204 1.1410515007
| 32> H 3.6235263136 -0.2373309009 -1.3622768113
| 33> H 1.9818006358 0.0096747292 -1.9475306705
| 34> H 2.434473237 -1.5236470963 -1.181263162
| 35> *
| 36>
| 37>                          ****END OF INPUT****

CARTESIAN COORDINATES (ANGSTROEM)
---------------------------------
  C     -3.681372   -0.269355    0.127127
  C     -2.199949   -0.293272   -0.237349
  H     -2.102101   -0.561493   -1.295447
  C     -1.434234   -1.315318    0.599612
  C      0.042853   -1.319348    0.224474
  C      0.674837    0.059372    0.473754
  H      0.514160    0.309644    1.529384
  C     -0.101011    1.084579   -0.322329
  O      0.408659    1.842481   -1.124984
  C     -1.579375    1.097434   -0.036817
  C      2.188982    0.132037    0.200977
  C      2.982324   -0.550104    1.313709
  C      2.575902   -0.446303   -1.158977
  H     -3.810423   -0.013442    1.176104
  H     -4.211788    0.464330   -0.474509
  H     -4.128149   -1.244696   -0.047469
  H     -1.547677   -1.076897    1.659087
  H     -1.853388   -2.308770    0.431923
  H      0.574165   -2.067146    0.813023
  H      0.143246   -1.579545   -0.830128
  H     -1.723617    1.402260    1.001875
  H     -2.060304    1.832229   -0.685023
  H      2.449893    1.197673    0.192835
  H      2.770019   -1.615798    1.341988
  H      2.739581   -0.120297    2.282653
  H      4.047895   -0.422286    1.141052
  H      3.623526   -0.237331   -1.362277
  H      1.981801    0.009675   -1.947531
  H      2.434473   -1.523647   -1.181263

 Total Charge           Charge          ....    0
 Multiplicity           Mult            ....    1
 Number of Electrons    NEL             ....   86
 Basis Dimension        Dim             ....  304

ORBITAL ENERGIES
----------------

  NO   OCC          E(Eh)            E(eV)
   0   2.0000     -18.933557      -515.2083
   1   2.0000     -10.111498      -275.1478
   2   2.0000     -10.048562      -273.4353
   3   2.0000     -10.040605      -273.2187
   4   2.0000     -10.038560      -273.1631
   5   2.0000     -10.035066      -273.0680
   6   2.0000     -10.034288      -273.0469
   7   2.0000     -10.032052      -272.9860
   8   2.0000     -10.025448      -272.8063
   9   2.0000     -10.015991      -272.5490
  10   2.0000     -10.008700      -272.3506
  11   2.0000      -1.000217       -27.2173
  12   2.0000      -0.817232       -22.2380
  13   2.0000      -0.775351       -21.0984
  14   2.0000      -0.721980       -19.6461
  15   2.0000      -0.700224       -19.0541
  16   2.0000      -0.653707       -17.7883
  17   2.0000      -0.647579       -17.6215
  18   2.0000      -0.590476       -16.0677
  19   2.0000      -0.550364       -14.9762
  20   2.0000      -0.534641       -14.5483
  21   2.0000      -0.494164       -13.4469
  22   2.0000      -0.451997       -12.2995
  23   2.0000      -0.437571       -11.9069
  24   2.0000      -0.430913       -11.7257
  25   2.0000      -0.417153       -11.3513
  26   2.0000      -0.410133       -11.1603
  27   2.0000      -0.396876       -10.7995
  28   2.0000      -0.384503       -10.4629
  29   2.0000      -0.376631       -10.2486
  30   2.0000      -0.367365        -9.9965
  31   2.0000      -0.358265        -9.7489
  32   2.0000      -0.347931        -9.4677
  33   2.0000      -0.344365        -9.3706
  34   2.0000      -0.335162        -9.1202
  35   2.0000      -0.322715        -8.7815
  36   2.0000      -0.318319        -8.6619
  37   2.0000      -0.305501        -8.3131
  38   2.0000      -0.298313        -8.1175
  39   2.0000      -0.294981        -8.0269
  40   2.0000      -0.284512        -7.7420
  41   2.0000      -0.277336        -7.5467
  42   2.0000      -0.205023        -5.5790
  43   0.0000      -0.045271        -1.2319
  44   0.0000       0.074936         2.0391
  45   0.0000       0.081963         2.2303
  46   0.0000       0.095941         2.6107
  47   0.0000       0.106574         2.9000

MULLIKEN ATOMIC CHARGES
-----------------------
   0 C :   -0.491976
   1 C :   -0.022294
   2 H :    0.166387
   3 C :   -0.354295
   4 C :   -0.359336
   5 C :   -0.049855
   6 H :    0.167198
   7 C :    0.187642
   8 O :   -0.349227
   9 C :   -0.373769
  10 C :    0.018546
  11 C :   -0.492458
  12 C :   -0.583916
  13 H :    0.150676
  14 H :    0.152638
  15 H :    0.149906
  16 H :    0.157557
  17 H :    0.151756
  18 H :    0.159274
  19 H :    0.172693
  20 H :    0.173071
  21 H :    0.169993
  22 H :    0.169136
  23 H :    0.151122
  24 H :    0.143922
  25 H :    0.151527
  26 H :    0.150756
  27 H :    0.184950
  28 H :    0.148378
Sum of atomic charges:    0.0000000

LOEWDIN ATOMIC CHARGES
----------------------
   0 C :   -0.409467
   1 C :   -0.219145
   2 H :    0.162605
   3 C :   -0.290804
   4 C :   -0.271137
   5 C :   -0.194233
   6 H :    0.181103
   7 C :    0.235477
   8 O :   -0.468311
   9 C :   -0.259613
  10 C :   -0.222877
  11 C :   -0.413015
  12 C :   -0.409399
  13 H :    0.154452
  14 H :    0.156188
  15 H :    0.155193
  16 H :    0.159710
  17 H :    0.161478
  18 H :    0.162400
  19 H :    0.166461
  20 H :    0.176582
  21 H :    0.179153
  22 H :    0.174442
  23 H :    0.150913
  24 H :    0.151930
  25 H :    0.155681
  26 H :    0.155142
  27 H :    0.169209
  28 H :    0.149883

  Mayer bond orders larger than 0.100000
B(  0-C ,  1-C ) :   0.8933 B(  0-C , 13-H ) :   0.9969 B(  0-C , 14-H ) :   0.9757
B(  0-C , 15-H ) :   0.9740 B(  1-C ,  2-H ) :   0.9424 B(  1-C ,  3-C ) :   0.9097
B(  1-C ,  9-C ) :   0.8916 B(  3-C ,  4-C ) :   0.8856 B(  3-C , 16-H ) :   1.0127
B(  3-C , 17-H ) :   0.9451 B(  4-C ,  5-C ) :   0.8340 B(  4-C , 18-H ) :   0.9499
B(  4-C , 19-H ) :   0.9852 B(  5-C ,  6-H ) :   0.9678 B(  5-C ,  7-C ) :   0.8860
B(  5-C ,  8-O ) :  -0.1229 B(  5-C , 10-C ) :   0.8584 B(  7-C ,  8-O ) :   1.9971
B(  7-C ,  9-C ) :   0.9192 B(  9-C , 20-H ) :   0.9962 B(  9-C , 21-H ) :   0.9493
B( 10-C , 11-C ) :   0.8831 B( 10-C , 12-C ) :   0.8521 B( 10-C , 22-H ) :   0.9842
B( 11-C , 23-H ) :   0.9844 B( 11-C , 24-H ) :   0.9835 B( 11-C , 25-H ) :   0.9755
B( 12-C , 26-H ) :   0.9710 B( 12-C , 27-H ) :   0.9783 B( 12-C , 28-H ) :   0.9769

Dispersion correction           -0.010178073
FINAL SINGLE POINT ENERGY      -467.009396873349

DIPOLE MOMENT
-------------

Method             : SCF
Type of density    : Electron Density
Multiplicity       :   1
Irrep              :   0
Energy             :  -467.0121654284131409 Eh
Relativity type    :
Basis              : AO
                                X                 Y                 Z
Electronic contribution:     -0.394335430       6.291274363      -2.805806055
Nuclear contribution   :     -0.142815592      -7.061014820       3.497941024
                        -----------------------------------------
Total Dipole Moment    :     -0.537151022      -0.769740457       0.692134969
                        -----------------------------------------
Magnitude (a.u.)       :      1.166225710
Magnitude (Debye)      :      2.964310176

Rotational constants in cm-1:             0.066205             0.023404             0.019872
Rotational constants in MHz :          1984.763402           701.619788           595.761088

                             ****ORCA TERMINATED NORMALLY****
TOTAL RUN TIME: 0 days 0 hours 0 minutes 42 seconds 210 msec
