                         Program Version 6.0.0  -   RELEASE  -
|  1> ! r2scan-3c def2/J RI DEFGRID2 scfconv6 printgap
|  2> %output
|  3>     printlevel normal
|  4> end
|  5> %cpcm
|  6>     smd true
|  7>     smdsolvent "water"
|  8> end
|  9> * xyz 0 1
| 10> C -3.6813718285 -0.2693545979 0.127127073
| 11> C -2.1999494906 -0.2932723049 -0.2373494742
| 12> H -2.1021014269 -0.5614932917 -1.2954467734
| 13> C -1.4342343954 -1.3153184566 0.5996118227
| 14> C 0.0428526499 -1.3193475846 0.2244744497
| 15> C 0.6748370705 0.0593717372 0.4737541463
| 16> H 0.5141596715 0.3096436999 1.529384136
| 17> C -0.1010111227 1.0845792072 -0.3223286049
| 18> O 0.408659085 1.8424812271 -1.124984042
| 19> C -1.5793745879 1.0974338451 -0.0368174413
| 20> C 2.1889818584 0.1320369725 0.2009773935
| 21> C 2.9823244772 -0.5501042 1.3137088706
| 22> C 2.5759024317 -0.4463033299 -1.1589773436
| 23> H -3.8104234719 -0.0134424931 1.176104424
| 24> H -4.2117880265 0.4643303284 -0.4745094104
| 25> H -4.1281487265 -1.2446958801 -0.0474685898
| 26> H -1.5476773131 -1.0768971447 1.6590872486
| 27> H -1.8533884937 -2.3087699361 0.4319226312
| 28> H 0.574164863 -2.0671458453 0.8130228844
| 29> H 0.1432461286 -1.5795445426 -0.830128219
| 30> H -1.7236173012 1.4022599868 1.001875058
| 31> H -2.0603042015 1.8322288537 -0.6850228709
| 32> H 2.4498925209 1.1976732143 0.1928352281
| 33> H 2.7700193759 -1.6157982785 1.3419882028
| 34> H 2.7395813886 -0.1202974716 2.2826525914
| 35> H 4.047895032 -0.4222857204 1.1410515007
| 36> H 3.6235263136 -0.2373309009 -1.3622768113
| 37> H 1.9818006358 0.0096747292 -1.9475306705
| 38> H 2.434473237 -1.5236470963 -1.181263162
| 39> *
| 40>
| 41>                          ****END OF INPUT****

CARTESIAN COORDINATES (ANGSTROEM)
---------------------------------
  C     -3.681372   -0.269355    0.127127
  C     -2.199949   -0.293272   -0.237349
  H     -2.102101   -0.561493   -1.295447
  C     -1.434234   -1.315318    0.599612
  C      0.042853   -1.319348    0.224474
  C      0.674837    0.059372    0.473754
  H      0.514160    0.309644    1.529384
  C     -0.101011    1.084579   -0.322329
  O      0.408659    1.842481   -1.124984
  C     -1.579375    1.097434   -0.036817
  C      2.188982    0.132037    0.200977
  C      2.982324   -0.550104    1.313709
  C      2.575902   -0.446303   -1.158977
  H     -3.810423   -0.013442    1.176104
  H     -4.211788    0.464330   -0.474509
  H     -4.128149   -1.244696   -0.047469
  H     -1.547677   -1.076897    1.659087
  H     -1.853388   -2.308770    0.431923
  H      0.574165   -2.067146    0.813023
  H      0.143246   -1.579545   -0.830128
  H     -1.723617    1.402260    1.001875
  H     -2.060304    1.832229   -0.685023
  H      2.449893    1.197673    0.192835
  H      2.770019   -1.615798    1.341988
  H      2.739581   -0.120297    2.282653
  H      4.047895   -0.422286    1.141052
  H      3.623526   -0.237331   -1.362277
  H      1.981801    0.009675   -1.947531
  H      2.434473   -1.523647   -1.181263

 Total Charge           Charge          ....    0
 Multiplicity           Mult            ....    1
 Number of Electrons    NEL             ....   86
 Basis Dimension        Dim             ....  304

ORBITAL ENERGIES
----------------

  NO   OCC          E(Eh)            E(eV)
   0   2.0000     -18.944762      -515.5132
   1   2.0000     -10.117394      -275.3083
   2   2.0000     -10.034282      -273.0467
   3   2.0000     -10.031792      -272.9789
   4   2.0000     -10.027260      -272.8556
   5   2.0000     -10.024650      -272.7846
   6   2.0000     -10.024080      -272.7691
   7   2.0000     -10.017798      -272.5981
   8   2.0000     -10.009685      -272.3774
   9   2.0000     -10.006856      -272.3004
  10   2.0000     -10.005551      -272.2649
  11   2.0000      -1.012590       -27.5540
  12   2.0000      -0.805876       -21.9290
  13   2.0000      -0.766405       -20.8549
  14   2.0000      -0.710666       -19.3382
  15   2.0000      -0.690975       -18.8024
  16   2.0000      -0.642392       -17.4804
  17   2.0000      -0.642047       -17.4710
  18   2.0000      -0.578426       -15.7398
  19   2.0000      -0.539762       -14.6877
  20   2.0000      -0.525845       -14.3090
  21   2.0000      -0.488183       -13.2841
  22   2.0000      -0.443964       -12.0809
  23   2.0000      -0.431563       -11.7434
  24   2.0000      -0.424284       -11.5454
  25   2.0000      -0.412803       -11.2330
  26   2.0000      -0.405781       -11.0419
  27   2.0000      -0.390177       -10.6172
  28   2.0000      -0.373882       -10.1738
  29   2.0000      -0.368319       -10.0225
  30   2.0000      -0.358298        -9.7498
  31   2.0000      -0.348038        -9.4706
  32   2.0000      -0.344810        -9.3828
  33   2.0000      -0.335456        -9.1282
  34   2.0000      -0.330485        -8.9929
  35   2.0000      -0.311223        -8.4688
  36   2.0000      -0.308442        -8.3931
  37   2.0000      -0.294777        -8.0213
  38   2.0000      -0.290659        -7.9092
  39   2.0000      -0.286072        -7.7844
  40   2.0000      -0.274661        -7.4739
  41   2.0000      -0.269472        -7.3327
  42   2.0000      -0.213393        -5.8067
  43   0.0000      -0.047660        -1.2969
  44   0.0000       0.082415         2.2426
  45   0.0000       0.098357         2.6764
  46   0.0000       0.108620         2.9557
  47   0.0000       0.118341         3.2202

MULLIKEN ATOMIC CHARGES
-----------------------
   0 C :   -0.544249
   1 C :    0.003848
   2 H :    0.175493
   3 C :   -0.372156
   4 C :   -0.370624
   5 C :   -0.028874
   6 H :    0.197571
   7 C :    0.222178
   8 O :   -0.450001
   9 C :   -0.399512
  10 C :    0.004446
  11 C :   -0.541632
  12 C :   -0.605348
  13 H :    0.166204
  14 H :    0.162472
  15 H :    0.162411
  16 H :    0.171472
  17 H :    0.162297
  18 H :    0.173536
  19 H :    0.181075
  20 H :    0.202639
  21 H :    0.171333
  22 H :    0.164075
  23 H :    0.168329
  24 H :    0.159380
  25 H :    0.160909
  26 H :    0.164198
  27 H :    0.172706
  28 H :    0.165823
Sum of atomic charges:    0.0000000

LOEWDIN ATOMIC CHARGES
----------------------
   0 C :   -0.416649
   1 C :   -0.212990
   2 H :    0.165955
   3 C :   -0.290707
   4 C :   -0.268070
   5 C :   -0.189141
   6 H :    0.194938
   7 C :    0.251640
   8 O :   -0.543221
   9 C :   -0.258337
  10 C :   -0.223102
  11 C :   -0.418899
  12 C :   -0.418500
  13 H :    0.158285
  14 H :    0.157981
  15 H :    0.158376
  16 H :    0.164717
  17 H :    0.165152
  18 H :    0.168037
  19 H :    0.169021
  20 H :    0.190151
  21 H :    0.178732
  22 H :    0.169389
  23 H :    0.156526
  24 H :    0.156879
  25 H :    0.156897
  26 H :    0.156904
  27 H :    0.163327
  28 H :    0.156711

  Mayer bond orders larger than 0.100000
B(  0-C ,  1-C ) :   0.8767 B(  0-C , 13-H ) :   0.9948 B(  0-C , 14-H ) :   0.9739
B(  0-C , 15-H ) :   0.9717 B(  1-C ,  2-H ) :   0.9412 B(  1-C ,  3-C ) :   0.9124
B(  1-C ,  9-C ) :   0.8852 B(  3-C ,  4-C ) :   0.8886 B(  3-C , 16-H ) :   1.0077
B(  3-C , 17-H ) :   0.9438 B(  4-C ,  5-C ) :   0.8304 B(  4-C , 18-H ) :   0.9469
B(  4-C , 19-H ) :   0.9807 B(  5-C ,  6-H ) :   0.9513 B(  5-C ,  7-C ) :   0.9062
B(  5-C ,  8-O ) :  -0.1140 B(  5-C , 10-C ) :   0.8364 B(  7-C ,  8-O ) :   1.9255
B(  7-C ,  9-C ) :   0.9357 B(  9-C , 20-H ) :   0.9742 B(  9-C , 21-H ) :   0.9578
B( 10-C , 11-C ) :   0.8876 B( 10-C , 12-C ) :   0.8547 B( 10-C , 22-H ) :   0.9948
B( 11-C , 23-H ) :   0.9813 B( 11-C , 24-H ) :   0.9789 B( 11-C , 25-H ) :   0.9743
B( 12-C , 26-H ) :   0.9716 B( 12-C , 27-H ) :   0.9788 B( 12-C , 28-H ) :   0.9729

Dispersion correction           -0.010178073
FINAL SINGLE POINT ENERGY      -467.014713243985

DIPOLE MOMENT
-------------

Method             : SCF
Type of density    : Electron Density
Multiplicity       :   1
Irrep              :   0
Energy             :  -467.0174817990493352 Eh
Relativity type    :
Basis              : AO
                                X                 Y                 Z
Electronic contribution:     -0.632722324       5.866054255      -2.360699735
Nuclear contribution   :     -0.142815592      -7.061014820       3.497941024
                        -----------------------------------------
Total Dipole Moment    :     -0.775537915      -1.194960564       1.137241289
                        -----------------------------------------
Magnitude (a.u.)       :      1.822829547
Magnitude (Debye)      :      4.633264497

Rotational constants in cm-1:             0.066205             0.023404             0.019872
Rotational constants in MHz :          1984.763402           701.619788           595.761088

                             ****ORCA TERMINATED NORMALLY****
TOTAL RUN TIME: 0 days 0 hours 0 minutes 53 seconds 73 msec
