                         Program Version 6.0.0  -   RELEASE  -
|  1> ! pbe def2-sv(p) def2/J RI DEFGRID1 loosescf d4 GCP(DFT/SV(P)) printgap
|  2> %output
|  3>     printlevel normal
|  4> end
|  5> * xyz 0 1
|  6> C -2.4554615073 -0.8422736675 0.086031933
|  7> C -1.0463898446 -0.4989005306 0.5857085576
|  8> H -0.9586356593 -0.7605469071 1.6530200179
|  9> C -0.7412571754 1.0090243936 0.4470858379
| 10> H -1.5990216086 1.4921940711 -0.0346463542
| 11> C 0.4858802302 1.2229393125 -0.4635419117
| 12> H 0.7996893621 2.2763170669 -0.3817921145
| 13> C 1.6533973863 0.3569907975 0.0473968204
| 14> H 2.4763133542 0.3616850342 -0.6762795501
| 15> C 1.197526994 -1.1164405816 0.1950909541
| 16> H 1.3298886388 -1.4107207317 1.2601405882
| 17> O -0.1517465866 -1.3013185277 -0.1611897046
| 18> O 1.9667204468 -1.9026328199 -0.6400745388
| 19> O 2.1803681509 0.8739105507 1.2396661839
| 20> O 0.096186369 0.9203215865 -1.7750969074
| 21> O -0.5097841928 1.5273694573 1.7396828364
| 22> O -2.7397103159 -0.2737071076 -1.1650875588
| 23> H -3.1981238812 -0.4449632832 0.7800500658
| 24> H -2.5422711724 -1.9354577401 0.0446724434
| 25> H 1.5682802807 -2.7844960121 -0.7133324808
| 26> H 1.4429753523 1.0682874922 1.8477176476
| 27> H 0.8414275056 1.0428011656 -2.3796921878
| 28> H -0.7236022837 2.4707476239 1.7647033383
| 29> H -2.0030676953 -0.4637585718 -1.7656170955
| 30> *
| 31>
| 32>                          ****END OF INPUT****

CARTESIAN COORDINATES (ANGSTROEM)
---------------------------------
  C     -2.455462   -0.842274    0.086032
  C     -1.046390   -0.498901    0.585709
  H     -0.958636   -0.760547    1.653020
  C     -0.741257    1.009024    0.447086
  H     -1.599022    1.492194   -0.034646
  C      0.485880    1.222939   -0.463542
  H      0.799689    2.276317   -0.381792
  C      1.653397    0.356991    0.047397
  H      2.476313    0.361685   -0.676280
  C      1.197527   -1.116441    0.195091
  H      1.329889   -1.410721    1.260141
  O     -0.151747   -1.301319   -0.161190
  O      1.966720   -1.902633   -0.640075
  O      2.180368    0.873911    1.239666
  O      0.096186    0.920322   -1.775097
  O     -0.509784    1.527369    1.739683
  O     -2.739710   -0.273707   -1.165088
  H     -3.198124   -0.444963    0.780050
  H     -2.542271   -1.935458    0.044672
  H      1.568280   -2.784496   -0.713332
  H      1.442975    1.068287    1.847718
  H      0.841428    1.042801   -2.379692
  H     -0.723602    2.470748    1.764703
  H     -2.003068   -0.463759   -1.765617

 Total Charge           Charge          ....    0
 Multiplicity           Mult            ....    1
 Number of Electrons    NEL             ....   96
 Basis Dimension        Dim             ....  192

ORBITAL ENERGIES
----------------

  NO   OCC          E(Eh)            E(eV)
   0   2.0000     -18.782245      -511.0909
   1   2.0000     -18.767462      -510.6886
   2   2.0000     -18.763344      -510.5765
   3   2.0000     -18.757527      -510.4183
   4   2.0000     -18.741980      -509.9952
   5   2.0000     -18.738170      -509.8915
   6   2.0000      -9.981157      -271.6011
   7   2.0000      -9.951164      -270.7849
   8   2.0000      -9.947377      -270.6819
   9   2.0000      -9.946432      -270.6562
  10   2.0000      -9.935314      -270.3536
  11   2.0000      -9.932425      -270.2750
  12   2.0000      -0.984271       -26.7834
  13   2.0000      -0.956620       -26.0309
  14   2.0000      -0.938635       -25.5416
  15   2.0000      -0.924913       -25.1682
  16   2.0000      -0.915706       -24.9176
  17   2.0000      -0.908847       -24.7310
  18   2.0000      -0.703797       -19.1513
  19   2.0000      -0.683241       -18.5919
  20   2.0000      -0.623344       -16.9620
  21   2.0000      -0.587681       -15.9916
  22   2.0000      -0.565279       -15.3820
  23   2.0000      -0.523810       -14.2536
  24   2.0000      -0.504485       -13.7277
  25   2.0000      -0.484839       -13.1931
  26   2.0000      -0.477955       -13.0058
  27   2.0000      -0.464172       -12.6308
  28   2.0000      -0.460911       -12.5420
  29   2.0000      -0.442043       -12.0286
  30   2.0000      -0.407797       -11.0967
  31   2.0000      -0.400414       -10.8958
  32   2.0000      -0.376714       -10.2509
  33   2.0000      -0.368763       -10.0345
  34   2.0000      -0.358861        -9.7651
  35   2.0000      -0.354695        -9.6517
  36   2.0000      -0.334734        -9.1086
  37   2.0000      -0.319506        -8.6942
  38   2.0000      -0.308477        -8.3941
  39   2.0000      -0.296567        -8.0700
  40   2.0000      -0.288227        -7.8431
  41   2.0000      -0.274594        -7.4721
  42   2.0000      -0.251155        -6.8343
  43   2.0000      -0.241573        -6.5735
  44   2.0000      -0.233084        -6.3425
  45   2.0000      -0.222629        -6.0580
  46   2.0000      -0.215081        -5.8527
  47   2.0000      -0.196258        -5.3405
  48   0.0000       0.002806         0.0763
  49   0.0000       0.016888         0.4595
  50   0.0000       0.039424         1.0728
  51   0.0000       0.054344         1.4788
  52   0.0000       0.065866         1.7923

MULLIKEN ATOMIC CHARGES
-----------------------
   0 C :    0.077205
   1 C :    0.009280
   2 H :    0.062961
   3 C :   -0.007854
   4 H :    0.092544
   5 C :    0.036438
   6 H :    0.060635
   7 C :    0.020072
   8 H :    0.071891
   9 C :    0.231326
  10 H :    0.037006
  11 O :   -0.308610
  12 O :   -0.386957
  13 O :   -0.430545
  14 O :   -0.408896
  15 O :   -0.416188
  16 O :   -0.438641
  17 H :    0.088812
  18 H :    0.080309
  19 H :    0.302233
  20 H :    0.296759
  21 H :    0.307973
  22 H :    0.315441
  23 H :    0.306806
Sum of atomic charges:   -0.0000000

LOEWDIN ATOMIC CHARGES
----------------------
   0 C :   -0.119527
   1 C :   -0.072342
   2 H :    0.107850
   3 C :   -0.075434
   4 H :    0.117379
   5 C :   -0.083381
   6 H :    0.097753
   7 C :   -0.086636
   8 H :    0.116370
   9 C :    0.003461
  10 H :    0.078006
  11 O :   -0.158246
  12 O :   -0.296966
  13 O :   -0.320618
  14 O :   -0.311087
  15 O :   -0.305298
  16 O :   -0.333147
  17 H :    0.115557
  18 H :    0.103128
  19 H :    0.286637
  20 H :    0.267940
  21 H :    0.290798
  22 H :    0.295994
  23 H :    0.281811

  Mayer bond orders larger than 0.100000
B(  0-C ,  1-C ) :   1.0547 B(  0-C , 16-O ) :   1.0796 B(  0-C , 17-H ) :   0.9239
B(  0-C , 18-H ) :   0.9116 B(  1-C ,  2-H ) :   0.8702 B(  1-C ,  3-C ) :   0.9834
B(  1-C , 11-O ) :   1.0250 B(  3-C ,  4-H ) :   0.8855 B(  3-C ,  5-C ) :   1.0026
B(  3-C , 15-O ) :   1.0360 B(  5-C ,  6-H ) :   0.8994 B(  5-C ,  7-C ) :   0.9874
B(  5-C , 14-O ) :   1.0504 B(  7-C ,  8-H ) :   0.8913 B(  7-C ,  9-C ) :   0.9384
B(  7-C , 13-O ) :   1.0671 B(  9-C , 10-H ) :   0.8933 B(  9-C , 11-O ) :   1.0219
B(  9-C , 12-O ) :   1.1653 B( 12-O , 19-H ) :   0.8402 B( 13-O , 20-H ) :   0.8081
B( 14-O , 21-H ) :   0.8412 B( 15-O , 20-H ) :   0.1074 B( 15-O , 22-H ) :   0.8404
B( 16-O , 23-H ) :   0.8271

Dispersion correction           -0.025281429
FINAL SINGLE POINT ENERGY      -685.692284396961

DIPOLE MOMENT
-------------

Method             : SCF
Type of density    : Electron Density
Multiplicity       :   1
Irrep              :   0
Energy             :  -685.8236744851503772 Eh
Relativity type    :
Basis              : AO
                                X                 Y                 Z
Electronic contribution:      2.177654448      -0.529865337      -1.231845118
Nuclear contribution   :     -2.395008887       0.853382937       1.301157637
                        -----------------------------------------
Total Dipole Moment    :     -0.217354440       0.323517600       0.069312519
                        -----------------------------------------
Magnitude (a.u.)       :      0.395867169
Magnitude (Debye)      :      1.006214378

Rotational constants in cm-1:             0.040657             0.028210             0.023292
Rotational constants in MHz :          1218.877407           845.700729           698.284301

                             ****ORCA TERMINATED NORMALLY****
TOTAL RUN TIME: 0 days 0 hours 0 minutes 11 seconds 953 msec
