                         Program Version 6.0.0  -   RELEASE  -
|  1> ! r2scan-3c def2/J RI DEFGRID2 scfconv6 printgap
|  2> %output
|  3>     printlevel normal
|  4> end
|  5> * xyz 0 1
|  6> C 3.2772024427 1.0718017534 0.0013096858
|  7> N 2.2779025596 0.0358370474 -0.0001463487
|  8> C 2.4781248767 -1.290348816 -0.0014029024
|  9> N 1.3623668562 -1.9966379606 -0.0015153493
| 10> C 0.3783839804 -1.0729251768 6.75762e-05
| 11> C 0.9149471293 0.2117134214 0.000856913
| 12> C 0.0895565778 1.3729532592 0.0005362855
| 13> O 0.456024294 2.5447621978 0.0002052349
| 14> N -1.2652238503 1.0511906129 -0.0002320591
| 15> C -1.8210019978 -0.2204472335 0.0002965352
| 16> O -3.0325319727 -0.3893315227 0.0002187475
| 17> N -0.9642563375 -1.286820918 -0.0003072983
| 18> C -1.5086121742 -2.6320045642 0.0013234013
| 19> C -2.1813087254 2.1834836235 -0.0013371776
| 20> H 3.9086639336 0.9830932544 -0.8818185038
| 21> H 2.7721590622 2.0356003366 -0.0071118771
| 22> H 3.8961307482 0.9929484804 0.8943081568
| 23> H 3.4518384908 -1.7364647004 -0.0023081298
| 24> H -2.1628862163 -2.7607564894 -0.8597637042
| 25> H -2.0933150522 -2.7899043038 0.9067248645
| 26> H -0.6715096814 -3.3211863802 -0.0411905165
| 27> H -3.1967181628 1.7979660189 -0.0092741028
| 28> H -1.9954467409 2.7960550052 -0.8825311311
| 29> H -2.0072694428 2.7890104293 0.887155937
| 30> *
| 31>
| 32>                          ****END OF INPUT****

CARTESIAN COORDINATES (ANGSTROEM)
---------------------------------
  C      3.277202    1.071802    0.001310
  N      2.277903    0.035837   -0.000146
  C      2.478125   -1.290349   -0.001403
  N      1.362367   -1.996638   -0.001515
  C      0.378384   -1.072925    0.000068
  C      0.914947    0.211713    0.000857
  C      0.089557    1.372953    0.000536
  O      0.456024    2.544762    0.000205
  N     -1.265224    1.051191   -0.000232
  C     -1.821002   -0.220447    0.000297
  O     -3.032532   -0.389332    0.000219
  N     -0.964256   -1.286821   -0.000307
  C     -1.508612   -2.632005    0.001323
  C     -2.181309    2.183484   -0.001337
  H      3.908664    0.983093   -0.881819
  H      2.772159    2.035600   -0.007112
  H      3.896131    0.992948    0.894308
  H      3.451838   -1.736465   -0.002308
  H     -2.162886   -2.760756   -0.859764
  H     -2.093315   -2.789904    0.906725
  H     -0.671510   -3.321186   -0.041191
  H     -3.196718    1.797966   -0.009274
  H     -1.995447    2.796055   -0.882531
  H     -2.007269    2.789010    0.887156

 Total Charge           Charge          ....    0
 Multiplicity           Mult            ....    1
 Number of Electrons    NEL             ....  102
 Basis Dimension        Dim             ....  346

ORBITAL ENERGIES
----------------

  NO   OCC          E(Eh)            E(eV)
   0   2.0000     -18.924401      -514.9591
   1   2.0000     -18.919048      -514.8135
   2   2.0000     -14.249410      -387.7462
   3   2.0000     -14.229215      -387.1966
   4   2.0000     -14.220604      -386.9623
   5   2.0000     -14.166524      -385.4907
   6   2.0000     -10.167927      -276.6834
   7   2.0000     -10.146780      -276.1079
   8   2.0000     -10.114857      -275.2392
   9   2.0000     -10.110777      -275.1282
  10   2.0000     -10.088759      -274.5291
  11   2.0000     -10.078691      -274.2551
  12   2.0000     -10.071475      -274.0588
  13   2.0000     -10.059282      -273.7270
  14   2.0000      -1.045442       -28.4479
  15   2.0000      -1.020116       -27.7588
  16   2.0000      -1.006005       -27.3748
  17   2.0000      -0.946268       -25.7493
  18   2.0000      -0.909587       -24.7511
  19   2.0000      -0.880608       -23.9626
  20   2.0000      -0.766467       -20.8566
  21   2.0000      -0.712443       -19.3865
  22   2.0000      -0.707590       -19.2545
  23   2.0000      -0.682913       -18.5830
  24   2.0000      -0.632010       -17.1979
  25   2.0000      -0.616904       -16.7868
  26   2.0000      -0.576149       -15.6778
  27   2.0000      -0.553738       -15.0680
  28   2.0000      -0.508851       -13.8465
  29   2.0000      -0.483418       -13.1545
  30   2.0000      -0.482123       -13.1192
  31   2.0000      -0.457370       -12.4457
  32   2.0000      -0.452923       -12.3247
  33   2.0000      -0.429199       -11.6791
  34   2.0000      -0.425428       -11.5765
  35   2.0000      -0.424905       -11.5623
  36   2.0000      -0.404403       -11.0044
  37   2.0000      -0.395608       -10.7651
  38   2.0000      -0.395444       -10.7606
  39   2.0000      -0.388113       -10.5611
  40   2.0000      -0.373125       -10.1532
  41   2.0000      -0.363687        -9.8964
  42   2.0000      -0.359524        -9.7831
  43   2.0000      -0.358015        -9.7421
  44   2.0000      -0.303294        -8.2531
  45   2.0000      -0.274825        -7.4784
  46   2.0000      -0.264721        -7.2034
  47   2.0000      -0.254789        -6.9332
  48   2.0000      -0.246866        -6.7176
  49   2.0000      -0.228748        -6.2246
  50   2.0000      -0.203198        -5.5293
  51   0.0000      -0.062006        -1.6873
  52   0.0000      -0.007587        -0.2064
  53   0.0000       0.000745         0.0203
  54   0.0000       0.046305         1.2600
  55   0.0000       0.073466         1.9991

MULLIKEN ATOMIC CHARGES
-----------------------
   0 C :   -0.400317
   1 N :    0.290061
   2 C :   -0.040723
   3 N :   -0.254285
   4 C :   -0.120712
   5 C :   -0.022504
   6 C :   -0.042640
   7 O :   -0.446133
   8 N :    0.138107
   9 C :    0.246268
  10 O :   -0.480782
  11 N :    0.194635
  12 C :   -0.386532
  13 C :   -0.396572
  14 H :    0.159061
  15 H :    0.215697
  16 H :    0.159470
  17 H :    0.142312
  18 H :    0.166940
  19 H :    0.164868
  20 H :    0.187523
  21 H :    0.198352
  22 H :    0.164118
  23 H :    0.163788
Sum of atomic charges:   -0.0000000

LOEWDIN ATOMIC CHARGES
----------------------
   0 C :   -0.080004
   1 N :   -0.718693
   2 C :    0.267109
   3 N :   -0.508917
   4 C :    0.356225
   5 C :    0.213134
   6 C :    0.385878
   7 O :   -0.470790
   8 N :   -0.645426
   9 C :    0.475353
  10 O :   -0.429873
  11 N :   -0.645993
  12 C :   -0.073388
  13 C :   -0.078431
  14 H :    0.181601
  15 H :    0.217743
  16 H :    0.181558
  17 H :    0.206810
  18 H :    0.189312
  19 H :    0.187449
  20 H :    0.203256
  21 H :    0.210346
  22 H :    0.188024
  23 H :    0.187716

  Mayer bond orders larger than 0.100000
B(  0-C ,  1-N ) :   0.8853 B(  0-C , 14-H ) :   0.9528 B(  0-C , 15-H ) :   0.9436
B(  0-C , 16-H ) :   0.9523 B(  1-N ,  2-C ) :   1.2501 B(  1-N ,  5-C ) :   1.2290
B(  2-C ,  3-N ) :   1.4414 B(  2-C , 17-H ) :   0.9611 B(  3-N ,  4-C ) :   1.3904
B(  4-C ,  5-C ) :   1.3953 B(  4-C , 11-N ) :   1.2709 B(  5-C ,  6-C ) :   1.0138
B(  6-C ,  7-O ) :   1.8546 B(  6-C ,  8-N ) :   1.0916 B(  8-N ,  9-C ) :   1.1277
B(  8-N , 13-C ) :   0.8958 B(  9-C , 10-O ) :   1.8079 B(  9-C , 11-N ) :   1.1229
B( 11-N , 12-C ) :   0.8804 B( 12-C , 18-H ) :   0.9465 B( 12-C , 19-H ) :   0.9457
B( 12-C , 20-H ) :   0.9617 B( 13-C , 21-H ) :   0.9504 B( 13-C , 22-H ) :   0.9475
B( 13-C , 23-H ) :   0.9473

Dispersion correction           -0.009842060
FINAL SINGLE POINT ENERGY      -680.225580815013

DIPOLE MOMENT
-------------

Method             : SCF
Type of density    : Electron Density
Multiplicity       :   1
Irrep              :   0
Energy             :  -680.2451827796975294 Eh
Relativity type    :
Basis              : AO
                                X                 Y                 Z
Electronic contribution:     -0.296395831      -1.080712744      -0.005228302
Nuclear contribution   :      1.753664437       0.757598347       0.003926061
                        -----------------------------------------
Total Dipole Moment    :      1.457268606      -0.323114397      -0.001302241
                        -----------------------------------------
Magnitude (a.u.)       :      1.492660845
Magnitude (Debye)      :      3.794042351

Rotational constants in cm-1:             0.035719             0.023854             0.014418
Rotational constants in MHz :          1070.813801           715.120809           432.253133

                             ****ORCA TERMINATED NORMALLY****
TOTAL RUN TIME: 0 days 0 hours 1 minutes 9 seconds 299 msec
