                         Program Version 6.0.0  -   RELEASE  -
|  1> ! r2scan-3c def2/J RI DEFGRID2 scfconv6 printgap
|  2> %output
|  3>     printlevel normal
|  4> end
|  5> %cpcm
|  6>     smd true
|  7>     smdsolvent "water"
|  8> end
|  9> * xyz 0 1
| 10> C 3.2772024427 1.0718017534 0.0013096858
| 11> N 2.2779025596 0.0358370474 -0.0001463487
| 12> C 2.4781248767 -1.290348816 -0.0014029024
| 13> N 1.3623668562 -1.9966379606 -0.0015153493
| 14> C 0.3783839804 -1.0729251768 6.75762e-05
| 15> C 0.9149471293 0.2117134214 0.000856913
| 16> C 0.0895565778 1.3729532592 0.0005362855
| 17> O 0.456024294 2.5447621978 0.0002052349
| 18> N -1.2652238503 1.0511906129 -0.0002320591
| 19> C -1.8210019978 -0.2204472335 0.0002965352
| 20> O -3.0325319727 -0.3893315227 0.0002187475
| 21> N -0.9642563375 -1.286820918 -0.0003072983
| 22> C -1.5086121742 -2.6320045642 0.0013234013
| 23> C -2.1813087254 2.1834836235 -0.0013371776
| 24> H 3.9086639336 0.9830932544 -0.8818185038
| 25> H 2.7721590622 2.0356003366 -0.0071118771
| 26> H 3.8961307482 0.9929484804 0.8943081568
| 27> H 3.4518384908 -1.7364647004 -0.0023081298
| 28> H -2.1628862163 -2.7607564894 -0.8597637042
| 29> H -2.0933150522 -2.7899043038 0.9067248645
| 30> H -0.6715096814 -3.3211863802 -0.0411905165
| 31> H -3.1967181628 1.7979660189 -0.0092741028
| 32> H -1.9954467409 2.7960550052 -0.8825311311
| 33> H -2.0072694428 2.7890104293 0.887155937
| 34> *
| 35>
| 36>                          ****END OF INPUT****

CARTESIAN COORDINATES (ANGSTROEM)
---------------------------------
  C      3.277202    1.071802    0.001310
  N      2.277903    0.035837   -0.000146
  C      2.478125   -1.290349   -0.001403
  N      1.362367   -1.996638   -0.001515
  C      0.378384   -1.072925    0.000068
  C      0.914947    0.211713    0.000857
  C      0.089557    1.372953    0.000536
  O      0.456024    2.544762    0.000205
  N     -1.265224    1.051191   -0.000232
  C     -1.821002   -0.220447    0.000297
  O     -3.032532   -0.389332    0.000219
  N     -0.964256   -1.286821   -0.000307
  C     -1.508612   -2.632005    0.001323
  C     -2.181309    2.183484   -0.001337
  H      3.908664    0.983093   -0.881819
  H      2.772159    2.035600   -0.007112
  H      3.896131    0.992948    0.894308
  H      3.451838   -1.736465   -0.002308
  H     -2.162886   -2.760756   -0.859764
  H     -2.093315   -2.789904    0.906725
  H     -0.671510   -3.321186   -0.041191
  H     -3.196718    1.797966   -0.009274
  H     -1.995447    2.796055   -0.882531
  H     -2.007269    2.789010    0.887156

 Total Charge           Charge          ....    0
 Multiplicity           Mult            ....    1
 Number of Electrons    NEL             ....  102
 Basis Dimension        Dim             ....  346

ORBITAL ENERGIES
----------------

  NO   OCC          E(Eh)            E(eV)
   0   2.0000     -18.935276      -515.2551
   1   2.0000     -18.933671      -515.2114
   2   2.0000     -14.239360      -387.4727
   3   2.0000     -14.231658      -387.2631
   4   2.0000     -14.226296      -387.1172
   5   2.0000     -14.163700      -385.4139
   6   2.0000     -10.177480      -276.9433
   7   2.0000     -10.154158      -276.3087
   8   2.0000     -10.113276      -275.1962
   9   2.0000     -10.101368      -274.8722
  10   2.0000     -10.076352      -274.1915
  11   2.0000     -10.065120      -273.8858
  12   2.0000     -10.063979      -273.8548
  13   2.0000     -10.058309      -273.7005
  14   2.0000      -1.052769       -28.6473
  15   2.0000      -1.021363       -27.7927
  16   2.0000      -1.011917       -27.5357
  17   2.0000      -0.949584       -25.8395
  18   2.0000      -0.915217       -24.9043
  19   2.0000      -0.874464       -23.7954
  20   2.0000      -0.762589       -20.7511
  21   2.0000      -0.706161       -19.2156
  22   2.0000      -0.697676       -18.9847
  23   2.0000      -0.681317       -18.5396
  24   2.0000      -0.630674       -17.1615
  25   2.0000      -0.616026       -16.7629
  26   2.0000      -0.573656       -15.6100
  27   2.0000      -0.546283       -14.8651
  28   2.0000      -0.502479       -13.6732
  29   2.0000      -0.481127       -13.0921
  30   2.0000      -0.476657       -12.9705
  31   2.0000      -0.449049       -12.2192
  32   2.0000      -0.446676       -12.1547
  33   2.0000      -0.433024       -11.7832
  34   2.0000      -0.427681       -11.6378
  35   2.0000      -0.423190       -11.5156
  36   2.0000      -0.409375       -11.1397
  37   2.0000      -0.398038       -10.8312
  38   2.0000      -0.382664       -10.4128
  39   2.0000      -0.377429       -10.2704
  40   2.0000      -0.367613       -10.0032
  41   2.0000      -0.366102        -9.9621
  42   2.0000      -0.362017        -9.8510
  43   2.0000      -0.361833        -9.8460
  44   2.0000      -0.299289        -8.1441
  45   2.0000      -0.277353        -7.5472
  46   2.0000      -0.269177        -7.3247
  47   2.0000      -0.265464        -7.2236
  48   2.0000      -0.251948        -6.8559
  49   2.0000      -0.243006        -6.6125
  50   2.0000      -0.203124        -5.5273
  51   0.0000      -0.060280        -1.6403
  52   0.0000      -0.014203        -0.3865
  53   0.0000       0.004980         0.1355
  54   0.0000       0.050971         1.3870
  55   0.0000       0.083932         2.2839

MULLIKEN ATOMIC CHARGES
-----------------------
   0 C :   -0.412047
   1 N :    0.300248
   2 C :   -0.024397
   3 N :   -0.306298
   4 C :   -0.126139
   5 C :   -0.009707
   6 C :   -0.034354
   7 O :   -0.522960
   8 N :    0.165329
   9 C :    0.264555
  10 O :   -0.562978
  11 N :    0.222736
  12 C :   -0.424909
  13 C :   -0.432080
  14 H :    0.187652
  15 H :    0.200299
  16 H :    0.187839
  17 H :    0.187481
  18 H :    0.186267
  19 H :    0.187727
  20 H :    0.195991
  21 H :    0.198673
  22 H :    0.185426
  23 H :    0.185645
Sum of atomic charges:   -0.0000000

LOEWDIN ATOMIC CHARGES
----------------------
   0 C :   -0.073037
   1 N :   -0.702277
   2 C :    0.287031
   3 N :   -0.539066
   4 C :    0.358151
   5 C :    0.216264
   6 C :    0.390754
   7 O :   -0.528311
   8 N :   -0.634401
   9 C :    0.479080
  10 O :   -0.491205
  11 N :   -0.633640
  12 C :   -0.071974
  13 C :   -0.078540
  14 H :    0.194445
  15 H :    0.211097
  16 H :    0.194294
  17 H :    0.225172
  18 H :    0.195214
  19 H :    0.194187
  20 H :    0.207588
  21 H :    0.210787
  22 H :    0.194294
  23 H :    0.194094

  Mayer bond orders larger than 0.100000
B(  0-C ,  1-N ) :   0.8843 B(  0-C , 14-H ) :   0.9422 B(  0-C , 15-H ) :   0.9468
B(  0-C , 16-H ) :   0.9417 B(  1-N ,  2-C ) :   1.2714 B(  1-N ,  5-C ) :   1.2179
B(  2-C ,  3-N ) :   1.4167 B(  2-C , 17-H ) :   0.9475 B(  3-N ,  4-C ) :   1.4157
B(  4-C ,  5-C ) :   1.3893 B(  4-C , 11-N ) :   1.2702 B(  5-C ,  6-C ) :   1.0361
B(  6-C ,  7-O ) :   1.7969 B(  6-C ,  8-N ) :   1.0991 B(  8-N ,  9-C ) :   1.1425
B(  8-N , 13-C ) :   0.8724 B(  9-C , 10-O ) :   1.7456 B(  9-C , 11-N ) :   1.1473
B( 11-N , 12-C ) :   0.8571 B( 12-C , 18-H ) :   0.9425 B( 12-C , 19-H ) :   0.9420
B( 12-C , 20-H ) :   0.9536 B( 13-C , 21-H ) :   0.9470 B( 13-C , 22-H ) :   0.9428
B( 13-C , 23-H ) :   0.9427

Dispersion correction           -0.009842060
FINAL SINGLE POINT ENERGY      -680.243032421712

DIPOLE MOMENT
-------------

Method             : SCF
Type of density    : Electron Density
Multiplicity       :   1
Irrep              :   0
Energy             :  -680.2626343863962575 Eh
Relativity type    :
Basis              : AO
                                X                 Y                 Z
Electronic contribution:      0.401881921      -1.353541224      -0.005034764
Nuclear contribution   :      1.753664437       0.757598347       0.003926061
                        -----------------------------------------
Total Dipole Moment    :      2.155546358      -0.595942877      -0.001108703
                        -----------------------------------------
Magnitude (a.u.)       :      2.236409901
Magnitude (Debye)      :      5.684502213

Rotational constants in cm-1:             0.035719             0.023854             0.014418
Rotational constants in MHz :          1070.813801           715.120809           432.253133

                             ****ORCA TERMINATED NORMALLY****
TOTAL RUN TIME: 0 days 0 hours 1 minutes 22 seconds 893 msec
