                         Program Version 6.0.0  -   RELEASE  -
|  1> ! wb97x-v def2-tzvp def2/J RIJCOSX DEFGRID2 scfconv7 GCP(DFT/TZ) printgap
|  2> %output
|  3>     printlevel normal
|  4> end
|  5> * xyz 0 1
|  6> C -3.083998246151658 0.009602158874436825 0.7407154803541754
|  7> O -2.3348527987234866 -0.18609447947673938 -0.4755865199985438
|  8> C -0.9565600494653795 -0.09017549606509521 -0.27074373384311223
|  9> C -0.2127150707316559 -1.2365543332797502 -0.009644857070944242
| 10> C 1.1650076726222043 -1.1502195612205377 0.15480058956543657
| 11> C 1.820158675814682 0.0875734056793793 0.06811088499084857
| 12> C 1.0552655768226467 1.2339766552689961 -0.19714866886861174
| 13> C -0.32213151378140525 1.1449883704866926 -0.3622532319266636
| 14> N 3.1907219665544484 0.18458677971308193 0.3016348037644519
| 15> H -4.140388936625784 -0.08020034351737187 0.4788522204111075
| 16> H -2.891166817188164 1.005580986077867 1.1581252067726204
| 17> H -2.821299593692461 -0.7551811925435157 1.4821532710671756
| 18> H -0.7135968418107123 -2.1977619530198176 0.05623266788224939
| 19> H 1.7441424341378053 -2.048418110906085 0.35069243592591126
| 20> H 1.5490799523776428 2.1986363099802957 -0.2765184105221078
| 21> H -0.9077661346402982 2.0352685278118683 -0.5711158626518681
| 22> H 3.628310605763122 0.9850713357376252 -0.13334472303144512
| 23> H 3.7022291624101853 -0.6664830807329158 0.11333316116501427
| 24> *
| 25>
| 26>                          ****END OF INPUT****

CARTESIAN COORDINATES (ANGSTROEM)
---------------------------------
  C     -3.083998    0.009602    0.740715
  O     -2.334853   -0.186094   -0.475587
  C     -0.956560   -0.090175   -0.270744
  C     -0.212715   -1.236554   -0.009645
  C      1.165008   -1.150220    0.154801
  C      1.820159    0.087573    0.068111
  C      1.055266    1.233977   -0.197149
  C     -0.322132    1.144988   -0.362253
  N      3.190722    0.184587    0.301635
  H     -4.140389   -0.080200    0.478852
  H     -2.891167    1.005581    1.158125
  H     -2.821300   -0.755181    1.482153
  H     -0.713597   -2.197762    0.056233
  H      1.744142   -2.048418    0.350692
  H      1.549080    2.198636   -0.276518
  H     -0.907766    2.035269   -0.571116
  H      3.628311    0.985071   -0.133345
  H      3.702229   -0.666483    0.113333

 Total Charge           Charge          ....    0
 Multiplicity           Mult            ....    1
 Number of Electrons    NEL             ....   66
 Basis Dimension        Dim             ....  333

ORBITAL ENERGIES
----------------

  NO   OCC          E(Eh)            E(eV)
   0   2.0000     -21.678393      -589.8991
   1   2.0000     -16.530544      -449.8190
   2   2.0000     -12.089582      -328.9742
   3   2.0000     -12.089312      -328.9669
   4   2.0000     -12.089076      -328.9605
   5   2.0000     -12.048986      -327.8696
   6   2.0000     -12.048360      -327.8525
   7   2.0000     -12.046005      -327.7885
   8   2.0000     -12.045655      -327.7789
   9   2.0000      -1.685918       -45.8762
  10   2.0000      -1.489564       -40.5331
  11   2.0000      -1.371795       -37.3284
  12   2.0000      -1.274244       -34.6739
  13   2.0000      -1.271638       -34.6030
  14   2.0000      -1.204069       -32.7644
  15   2.0000      -1.121159       -30.5083
  16   2.0000      -1.107071       -30.1249
  17   2.0000      -1.029170       -28.0051
  18   2.0000      -1.010577       -27.4992
  19   2.0000      -1.006711       -27.3940
  20   2.0000      -0.961698       -26.1691
  21   2.0000      -0.958325       -26.0773
  22   2.0000      -0.911726       -24.8093
  23   2.0000      -0.898546       -24.4507
  24   2.0000      -0.883112       -24.0307
  25   2.0000      -0.873455       -23.7679
  26   2.0000      -0.822543       -22.3825
  27   2.0000      -0.819505       -22.2999
  28   2.0000      -0.812738       -22.1157
  29   2.0000      -0.790942       -21.5226
  30   2.0000      -0.747978       -20.3535
  31   2.0000      -0.640125       -17.4187
  32   2.0000      -0.620977       -16.8977
  33   0.0000      -0.240020        -6.5313
  34   0.0000      -0.237369        -6.4591
  35   0.0000      -0.168579        -4.5873
  36   0.0000      -0.108981        -2.9655
  37   0.0000      -0.070867        -1.9284

MULLIKEN ATOMIC CHARGES
-----------------------
   0 C :   -0.172781
   1 O :   -0.300581
   2 C :    0.196524
   3 C :   -0.166981
   4 C :   -0.241802
   5 C :    0.298922
   6 C :   -0.244692
   7 C :   -0.164030
   8 N :   -0.449103
   9 H :    0.122110
  10 H :    0.107041
  11 H :    0.107531
  12 H :    0.121322
  13 H :    0.107278
  14 H :    0.107458
  15 H :    0.122179
  16 H :    0.224846
  17 H :    0.224760
Sum of atomic charges:    0.0000000

LOEWDIN ATOMIC CHARGES
----------------------
   0 C :   -0.314768
   1 O :    0.170126
   2 C :   -0.259890
   3 C :   -0.116394
   4 C :   -0.133000
   5 C :   -0.243325
   6 C :   -0.132984
   7 C :   -0.116840
   8 N :   -0.058408
   9 H :    0.107355
  10 H :    0.100694
  11 H :    0.100925
  12 H :    0.148022
  13 H :    0.140082
  14 H :    0.140105
  15 H :    0.147914
  16 H :    0.160178
  17 H :    0.160208

  Mayer bond orders larger than 0.100000
B(  0-C ,  1-O ) :   0.9513 B(  0-C ,  9-H ) :   0.9783 B(  0-C , 10-H ) :   0.9736
B(  0-C , 11-H ) :   0.9732 B(  1-O ,  2-C ) :   0.9382 B(  2-C ,  3-C ) :   1.4438
B(  2-C ,  7-C ) :   1.4391 B(  3-C ,  4-C ) :   1.4474 B(  3-C , 12-H ) :   0.9694
B(  4-C ,  5-C ) :   1.3853 B(  4-C , 13-H ) :   0.9613 B(  5-C ,  6-C ) :   1.3835
B(  5-C ,  8-N ) :   1.0527 B(  6-C ,  7-C ) :   1.4500 B(  6-C , 14-H ) :   0.9613
B(  7-C , 15-H ) :   0.9678 B(  8-N , 16-H ) :   0.9303 B(  8-N , 17-H ) :   0.9305

FINAL SINGLE POINT ENERGY      -402.142837723938

DIPOLE MOMENT
-------------

Method             : SCF
Type of density    : Electron Density
Multiplicity       :   1
Irrep              :   0
Energy             :  -402.1531673266376288 Eh
Relativity type    :
Basis              : AO
                                X                 Y                 Z
Electronic contribution:      1.412602935      -0.368094305      -2.260439751
Nuclear contribution   :     -0.818571218       0.439902035       2.434861436
                        -----------------------------------------
Total Dipole Moment    :      0.594031717       0.071807730       0.174421684
                        -----------------------------------------
Magnitude (a.u.)       :      0.623259942
Magnitude (Debye)      :      1.584200873

Rotational constants in cm-1:             0.154462             0.032905             0.028765
Rotational constants in MHz :          4630.663386           986.481846           862.350845

                             ****ORCA TERMINATED NORMALLY****
TOTAL RUN TIME: 0 days 0 hours 3 minutes 37 seconds 484 msec
