                         Program Version 6.0.0  -   RELEASE  -
|  1> ! wb97x-v def2-tzvp def2/J RIJCOSX DEFGRID2 scfconv7 GCP(DFT/TZ) printgap
|  2> %output
|  3>     printlevel normal
|  4> end
|  5> %cpcm
|  6>     smd true
|  7>     smdsolvent "water"
|  8> end
|  9> * xyz 0 1
| 10> C -3.083998246151658 0.009602158874436825 0.7407154803541754
| 11> O -2.3348527987234866 -0.18609447947673938 -0.4755865199985438
| 12> C -0.9565600494653795 -0.09017549606509521 -0.27074373384311223
| 13> C -0.2127150707316559 -1.2365543332797502 -0.009644857070944242
| 14> C 1.1650076726222043 -1.1502195612205377 0.15480058956543657
| 15> C 1.820158675814682 0.0875734056793793 0.06811088499084857
| 16> C 1.0552655768226467 1.2339766552689961 -0.19714866886861174
| 17> C -0.32213151378140525 1.1449883704866926 -0.3622532319266636
| 18> N 3.1907219665544484 0.18458677971308193 0.3016348037644519
| 19> H -4.140388936625784 -0.08020034351737187 0.4788522204111075
| 20> H -2.891166817188164 1.005580986077867 1.1581252067726204
| 21> H -2.821299593692461 -0.7551811925435157 1.4821532710671756
| 22> H -0.7135968418107123 -2.1977619530198176 0.05623266788224939
| 23> H 1.7441424341378053 -2.048418110906085 0.35069243592591126
| 24> H 1.5490799523776428 2.1986363099802957 -0.2765184105221078
| 25> H -0.9077661346402982 2.0352685278118683 -0.5711158626518681
| 26> H 3.628310605763122 0.9850713357376252 -0.13334472303144512
| 27> H 3.7022291624101853 -0.6664830807329158 0.11333316116501427
| 28> *
| 29>
| 30>                          ****END OF INPUT****

CARTESIAN COORDINATES (ANGSTROEM)
---------------------------------
  C     -3.083998    0.009602    0.740715
  O     -2.334853   -0.186094   -0.475587
  C     -0.956560   -0.090175   -0.270744
  C     -0.212715   -1.236554   -0.009645
  C      1.165008   -1.150220    0.154801
  C      1.820159    0.087573    0.068111
  C      1.055266    1.233977   -0.197149
  C     -0.322132    1.144988   -0.362253
  N      3.190722    0.184587    0.301635
  H     -4.140389   -0.080200    0.478852
  H     -2.891167    1.005581    1.158125
  H     -2.821300   -0.755181    1.482153
  H     -0.713597   -2.197762    0.056233
  H      1.744142   -2.048418    0.350692
  H      1.549080    2.198636   -0.276518
  H     -0.907766    2.035269   -0.571116
  H      3.628311    0.985071   -0.133345
  H      3.702229   -0.666483    0.113333

 Total Charge           Charge          ....    0
 Multiplicity           Mult            ....    1
 Number of Electrons    NEL             ....   66
 Basis Dimension        Dim             ....  333

ORBITAL ENERGIES
----------------

  NO   OCC          E(Eh)            E(eV)
   0   2.0000     -21.688215      -590.1663
   1   2.0000     -16.519829      -449.5274
   2   2.0000     -12.093017      -329.0677
   3   2.0000     -12.088800      -328.9530
   4   2.0000     -12.084212      -328.8281
   5   2.0000     -12.049814      -327.8921
   6   2.0000     -12.049286      -327.8777
   7   2.0000     -12.044474      -327.7468
   8   2.0000     -12.044105      -327.7367
   9   2.0000      -1.695815       -46.1455
  10   2.0000      -1.481124       -40.3034
  11   2.0000      -1.373598       -37.3775
  12   2.0000      -1.275156       -34.6987
  13   2.0000      -1.273079       -34.6422
  14   2.0000      -1.204675       -32.7809
  15   2.0000      -1.121081       -30.5062
  16   2.0000      -1.106588       -30.1118
  17   2.0000      -1.031943       -28.0806
  18   2.0000      -1.006783       -27.3960
  19   2.0000      -1.002592       -27.2819
  20   2.0000      -0.969139       -26.3716
  21   2.0000      -0.957161       -26.0457
  22   2.0000      -0.912982       -24.8435
  23   2.0000      -0.895657       -24.3721
  24   2.0000      -0.881952       -23.9991
  25   2.0000      -0.871694       -23.7200
  26   2.0000      -0.818710       -22.2782
  27   2.0000      -0.816801       -22.2263
  28   2.0000      -0.809984       -22.0408
  29   2.0000      -0.790627       -21.5141
  30   2.0000      -0.749388       -20.3919
  31   2.0000      -0.642582       -17.4855
  32   2.0000      -0.622580       -16.9413
  33   0.0000      -0.242762        -6.6059
  34   0.0000      -0.239161        -6.5079
  35   0.0000      -0.171003        -4.6532
  36   0.0000      -0.110406        -3.0043
  37   0.0000      -0.065576        -1.7844

MULLIKEN ATOMIC CHARGES
-----------------------
   0 C :   -0.199529
   1 O :   -0.371211
   2 C :    0.212459
   3 C :   -0.194833
   4 C :   -0.305907
   5 C :    0.261358
   6 C :   -0.307617
   7 C :   -0.190513
   8 N :   -0.498933
   9 H :    0.145620
  10 H :    0.133265
  11 H :    0.132367
  12 H :    0.158878
  13 H :    0.158357
  14 H :    0.158548
  15 H :    0.160184
  16 H :    0.273782
  17 H :    0.273725
Sum of atomic charges:    0.0000000

LOEWDIN ATOMIC CHARGES
----------------------
   0 C :   -0.312743
   1 O :    0.137555
   2 C :   -0.277957
   3 C :   -0.126890
   4 C :   -0.138205
   5 C :   -0.253297
   6 C :   -0.138125
   7 C :   -0.126545
   8 N :   -0.064764
   9 H :    0.113596
  10 H :    0.108628
  11 H :    0.108479
  12 H :    0.156659
  13 H :    0.153122
  14 H :    0.153132
  15 H :    0.156915
  16 H :    0.175203
  17 H :    0.175236

  Mayer bond orders larger than 0.100000
B(  0-C ,  1-O ) :   0.9139 B(  0-C ,  9-H ) :   0.9729 B(  0-C , 10-H ) :   0.9704
B(  0-C , 11-H ) :   0.9695 B(  1-O ,  2-C ) :   0.9077 B(  2-C ,  3-C ) :   1.4126
B(  2-C ,  7-C ) :   1.4094 B(  3-C ,  4-C ) :   1.4198 B(  3-C , 12-H ) :   0.9753
B(  4-C ,  5-C ) :   1.3636 B(  4-C , 13-H ) :   0.9725 B(  5-C ,  6-C ) :   1.3612
B(  5-C ,  8-N ) :   1.1058 B(  6-C ,  7-C ) :   1.4215 B(  6-C , 14-H ) :   0.9724
B(  7-C , 15-H ) :   0.9736 B(  8-N , 16-H ) :   0.9097 B(  8-N , 17-H ) :   0.9098

FINAL SINGLE POINT ENERGY      -402.153642677825

DIPOLE MOMENT
-------------

Method             : SCF
Type of density    : Electron Density
Multiplicity       :   1
Irrep              :   0
Energy             :  -402.1639722805249448 Eh
Relativity type    :
Basis              : AO
                                X                 Y                 Z
Electronic contribution:      1.695184285      -0.325559962      -2.143535849
Nuclear contribution   :     -0.818571218       0.439902035       2.434861436
                        -----------------------------------------
Total Dipole Moment    :      0.876613066       0.114342073       0.291325586
                        -----------------------------------------
Magnitude (a.u.)       :      0.930803511
Magnitude (Debye)      :      2.365914502

Rotational constants in cm-1:             0.154462             0.032905             0.028765
Rotational constants in MHz :          4630.663386           986.481846           862.350845

                             ****ORCA TERMINATED NORMALLY****
TOTAL RUN TIME: 0 days 0 hours 3 minutes 46 seconds 34 msec
