                         Program Version 6.0.0  -   RELEASE  -
|  1> ! r2scan-3c def2/J RI DEFGRID2 scfconv6 printgap
|  2> %output
|  3>     printlevel normal
|  4> end
|  5> * xyz 0 1
|  6> C 2.8534884093 0.7154734732 -0.2516335699
|  7> C 1.9964197215 -0.4659390135 0.1935843377
|  8> C 0.5158200225 -0.2337460262 0.0943523094
|  9> C -0.0685886776 1.0168895685 0.2663873745
| 10> C -1.4454998919 1.1360601871 0.1758840345
| 11> N -2.2603344629 0.1202049122 -0.0652841052
| 12> C -1.7068090919 -1.0733333015 -0.2261200697
| 13> C -0.3438409562 -1.3005093112 -0.1582413082
| 14> H 2.5645088784 1.0418040039 -1.2479618155
| 15> H 3.8992364484 0.4205157787 -0.2751629442
| 16> H 2.757089451 1.5546161126 0.4318024734
| 17> H 2.2315722406 -0.7077005958 1.234647012
| 18> H 2.2487525616 -1.3431930129 -0.405926034
| 19> H 0.5286960882 1.890701173 0.4671728102
| 20> H -1.9284691242 2.096039413 0.3024308004
| 21> H -2.3981127916 -1.8824170716 -0.4214453469
| 22> H 0.0462662877 -2.2966431218 -0.3010334585
| 23> *
| 24>
| 25>                          ****END OF INPUT****

CARTESIAN COORDINATES (ANGSTROEM)
---------------------------------
  C      2.853488    0.715473   -0.251634
  C      1.996420   -0.465939    0.193584
  C      0.515820   -0.233746    0.094352
  C     -0.068589    1.016890    0.266387
  C     -1.445500    1.136060    0.175884
  N     -2.260334    0.120205   -0.065284
  C     -1.706809   -1.073333   -0.226120
  C     -0.343841   -1.300509   -0.158241
  H      2.564509    1.041804   -1.247962
  H      3.899236    0.420516   -0.275163
  H      2.757089    1.554616    0.431802
  H      2.231572   -0.707701    1.234647
  H      2.248753   -1.343193   -0.405926
  H      0.528696    1.890701    0.467173
  H     -1.928469    2.096039    0.302431
  H     -2.398113   -1.882417   -0.421445
  H      0.046266   -2.296643   -0.301033

 Total Charge           Charge          ....    0
 Multiplicity           Mult            ....    1
 Number of Electrons    NEL             ....   58
 Basis Dimension        Dim             ....  202

ORBITAL ENERGIES
----------------

  NO   OCC          E(Eh)            E(eV)
   0   2.0000     -14.148214      -384.9925
   1   2.0000     -10.063608      -273.8447
   2   2.0000     -10.063267      -273.8354
   3   2.0000     -10.061044      -273.7749
   4   2.0000     -10.046553      -273.3806
   5   2.0000     -10.039616      -273.1918
   6   2.0000     -10.039409      -273.1862
   7   2.0000     -10.030961      -272.9563
   8   2.0000      -0.910982       -24.7891
   9   2.0000      -0.799030       -21.7427
  10   2.0000      -0.730171       -19.8690
  11   2.0000      -0.724119       -19.7043
  12   2.0000      -0.625879       -17.0310
  13   2.0000      -0.599270       -16.3070
  14   2.0000      -0.560286       -15.2462
  15   2.0000      -0.481057       -13.0902
  16   2.0000      -0.459408       -12.5011
  17   2.0000      -0.437124       -11.8948
  18   2.0000      -0.428522       -11.6607
  19   2.0000      -0.399950       -10.8832
  20   2.0000      -0.389721       -10.6048
  21   2.0000      -0.373735       -10.1698
  22   2.0000      -0.355454        -9.6724
  23   2.0000      -0.338536        -9.2120
  24   2.0000      -0.329115        -8.9557
  25   2.0000      -0.316551        -8.6138
  26   2.0000      -0.256505        -6.9799
  27   2.0000      -0.246114        -6.6971
  28   2.0000      -0.220522        -6.0007
  29   0.0000      -0.048918        -1.3311
  30   0.0000      -0.039426        -1.0728
  31   0.0000       0.078643         2.1400
  32   0.0000       0.096190         2.6175
  33   0.0000       0.100432         2.7329

MULLIKEN ATOMIC CHARGES
-----------------------
   0 C :   -0.466557
   1 C :   -0.314301
   2 C :    0.137853
   3 C :   -0.125714
   4 C :   -0.130092
   5 N :   -0.175185
   6 C :   -0.116198
   7 C :   -0.143588
   8 H :    0.163921
   9 H :    0.152434
  10 H :    0.141552
  11 H :    0.169728
  12 H :    0.149476
  13 H :    0.145316
  14 H :    0.131310
  15 H :    0.131463
  16 H :    0.148582
Sum of atomic charges:   -0.0000000

LOEWDIN ATOMIC CHARGES
----------------------
   0 C :   -0.413227
   1 C :   -0.285185
   2 C :   -0.056576
   3 C :   -0.147429
   4 C :    0.081490
   5 N :   -0.620013
   6 C :    0.080847
   7 C :   -0.147387
   8 H :    0.157319
   9 H :    0.154179
  10 H :    0.150363
  11 H :    0.171667
  12 H :    0.163445
  13 H :    0.172078
  14 H :    0.183793
  15 H :    0.183820
  16 H :    0.170814

  Mayer bond orders larger than 0.100000
B(  0-C ,  1-C ) :   0.8799 B(  0-C ,  8-H ) :   0.9876 B(  0-C ,  9-H ) :   0.9717
B(  0-C , 10-H ) :   0.9638 B(  1-C ,  2-C ) :   0.8405 B(  1-C , 11-H ) :   0.9628
B(  1-C , 12-H ) :   1.0081 B(  2-C ,  3-C ) :   1.3706 B(  2-C ,  5-N ) :   0.1023
B(  2-C ,  7-C ) :   1.3546 B(  3-C ,  4-C ) :   1.3694 B(  3-C , 13-H ) :   0.9379
B(  4-C ,  5-N ) :   1.4705 B(  4-C , 14-H ) :   0.9948 B(  5-N ,  6-C ) :   1.4671
B(  6-C ,  7-C ) :   1.3813 B(  6-C , 15-H ) :   0.9903 B(  7-C , 16-H ) :   0.9400

Dispersion correction           -0.005243385
FINAL SINGLE POINT ENERGY      -326.815902696934

DIPOLE MOMENT
-------------

Method             : SCF
Type of density    : Electron Density
Multiplicity       :   1
Irrep              :   0
Energy             :  -326.8185115707681234 Eh
Relativity type    :
Basis              : AO
                                X                 Y                 Z
Electronic contribution:     -8.215218975      -0.857600205       0.274871833
Nuclear contribution   :      9.321951957       0.726541353      -0.202511227
                        -----------------------------------------
Total Dipole Moment    :      1.106732982      -0.131058852       0.072360606
                        -----------------------------------------
Magnitude (a.u.)       :      1.116812595
Magnitude (Debye)      :      2.838712021

Rotational constants in cm-1:             0.167664             0.049594             0.039460
Rotational constants in MHz :          5026.427759          1486.783367          1182.983867

                             ****ORCA TERMINATED NORMALLY****
TOTAL RUN TIME: 0 days 0 hours 0 minutes 20 seconds 593 msec
