                         Program Version 6.0.0  -   RELEASE  -
|  1> ! r2scan-3c def2/J RI DEFGRID2 scfconv6 printgap
|  2> %output
|  3>     printlevel normal
|  4> end
|  5> %cpcm
|  6>     smd true
|  7>     smdsolvent "water"
|  8> end
|  9> * xyz 0 1
| 10> C 2.8534884093 0.7154734732 -0.2516335699
| 11> C 1.9964197215 -0.4659390135 0.1935843377
| 12> C 0.5158200225 -0.2337460262 0.0943523094
| 13> C -0.0685886776 1.0168895685 0.2663873745
| 14> C -1.4454998919 1.1360601871 0.1758840345
| 15> N -2.2603344629 0.1202049122 -0.0652841052
| 16> C -1.7068090919 -1.0733333015 -0.2261200697
| 17> C -0.3438409562 -1.3005093112 -0.1582413082
| 18> H 2.5645088784 1.0418040039 -1.2479618155
| 19> H 3.8992364484 0.4205157787 -0.2751629442
| 20> H 2.757089451 1.5546161126 0.4318024734
| 21> H 2.2315722406 -0.7077005958 1.234647012
| 22> H 2.2487525616 -1.3431930129 -0.405926034
| 23> H 0.5286960882 1.890701173 0.4671728102
| 24> H -1.9284691242 2.096039413 0.3024308004
| 25> H -2.3981127916 -1.8824170716 -0.4214453469
| 26> H 0.0462662877 -2.2966431218 -0.3010334585
| 27> *
| 28>
| 29>                          ****END OF INPUT****

CARTESIAN COORDINATES (ANGSTROEM)
---------------------------------
  C      2.853488    0.715473   -0.251634
  C      1.996420   -0.465939    0.193584
  C      0.515820   -0.233746    0.094352
  C     -0.068589    1.016890    0.266387
  C     -1.445500    1.136060    0.175884
  N     -2.260334    0.120205   -0.065284
  C     -1.706809   -1.073333   -0.226120
  C     -0.343841   -1.300509   -0.158241
  H      2.564509    1.041804   -1.247962
  H      3.899236    0.420516   -0.275163
  H      2.757089    1.554616    0.431802
  H      2.231572   -0.707701    1.234647
  H      2.248753   -1.343193   -0.405926
  H      0.528696    1.890701    0.467173
  H     -1.928469    2.096039    0.302431
  H     -2.398113   -1.882417   -0.421445
  H      0.046266   -2.296643   -0.301033

 Total Charge           Charge          ....    0
 Multiplicity           Mult            ....    1
 Number of Electrons    NEL             ....   58
 Basis Dimension        Dim             ....  202

ORBITAL ENERGIES
----------------

  NO   OCC          E(Eh)            E(eV)
   0   2.0000     -14.154324      -385.1587
   1   2.0000     -10.062561      -273.8162
   2   2.0000     -10.062207      -273.8066
   3   2.0000     -10.056226      -273.6438
   4   2.0000     -10.034815      -273.0612
   5   2.0000     -10.034680      -273.0575
   6   2.0000     -10.031011      -272.9577
   7   2.0000     -10.013951      -272.4935
   8   2.0000      -0.914592       -24.8873
   9   2.0000      -0.792545       -21.5663
  10   2.0000      -0.728085       -19.8122
  11   2.0000      -0.713301       -19.4099
  12   2.0000      -0.615947       -16.7608
  13   2.0000      -0.596681       -16.2365
  14   2.0000      -0.552292       -15.0286
  15   2.0000      -0.475031       -12.9262
  16   2.0000      -0.455395       -12.3919
  17   2.0000      -0.429388       -11.6843
  18   2.0000      -0.415540       -11.3074
  19   2.0000      -0.392663       -10.6849
  20   2.0000      -0.380749       -10.3607
  21   2.0000      -0.374373       -10.1872
  22   2.0000      -0.344480        -9.3738
  23   2.0000      -0.326819        -8.8932
  24   2.0000      -0.316804        -8.6207
  25   2.0000      -0.305491        -8.3128
  26   2.0000      -0.255044        -6.9401
  27   2.0000      -0.246047        -6.6953
  28   2.0000      -0.229305        -6.2397
  29   0.0000      -0.049039        -1.3344
  30   0.0000      -0.038819        -1.0563
  31   0.0000       0.087222         2.3734
  32   0.0000       0.103554         2.8178
  33   0.0000       0.113706         3.0941

MULLIKEN ATOMIC CHARGES
-----------------------
   0 C :   -0.504350
   1 C :   -0.306613
   2 C :    0.117196
   3 C :   -0.151275
   4 C :   -0.148172
   5 N :   -0.236120
   6 C :   -0.134797
   7 C :   -0.168467
   8 H :    0.168777
   9 H :    0.164957
  10 H :    0.159290
  11 H :    0.186736
  12 H :    0.170123
  13 H :    0.181800
  14 H :    0.158138
  15 H :    0.158447
  16 H :    0.184329
Sum of atomic charges:   -0.0000000

LOEWDIN ATOMIC CHARGES
----------------------
   0 C :   -0.418703
   1 C :   -0.283749
   2 C :   -0.051668
   3 C :   -0.145779
   4 C :    0.071526
   5 N :   -0.673941
   6 C :    0.070315
   7 C :   -0.144965
   8 H :    0.157812
   9 H :    0.157856
  10 H :    0.155761
  11 H :    0.179434
  12 H :    0.170864
  13 H :    0.185475
  14 H :    0.192653
  15 H :    0.192710
  16 H :    0.184399

  Mayer bond orders larger than 0.100000
B(  0-C ,  1-C ) :   0.8620 B(  0-C ,  8-H ) :   0.9864 B(  0-C ,  9-H ) :   0.9686
B(  0-C , 10-H ) :   0.9611 B(  1-C ,  2-C ) :   0.8533 B(  1-C , 11-H ) :   0.9552
B(  1-C , 12-H ) :   1.0049 B(  2-C ,  3-C ) :   1.3544 B(  2-C ,  7-C ) :   1.3410
B(  3-C ,  4-C ) :   1.3819 B(  3-C , 13-H ) :   0.9380 B(  4-C ,  5-N ) :   1.4627
B(  4-C , 14-H ) :   0.9814 B(  5-N ,  6-C ) :   1.4577 B(  6-C ,  7-C ) :   1.3908
B(  6-C , 15-H ) :   0.9779 B(  7-C , 16-H ) :   0.9415

Dispersion correction           -0.005243385
FINAL SINGLE POINT ENERGY      -326.822961820240

DIPOLE MOMENT
-------------

Method             : SCF
Type of density    : Electron Density
Multiplicity       :   1
Irrep              :   0
Energy             :  -326.8255706940742584 Eh
Relativity type    :
Basis              : AO
                                X                 Y                 Z
Electronic contribution:     -7.754630403      -0.928906574       0.325757940
Nuclear contribution   :      9.321951957       0.726541353      -0.202511227
                        -----------------------------------------
Total Dipole Moment    :      1.567321554      -0.202365221       0.123246713
                        -----------------------------------------
Magnitude (a.u.)       :      1.585130370
Magnitude (Debye)      :      4.029081203

Rotational constants in cm-1:             0.167664             0.049594             0.039460
Rotational constants in MHz :          5026.427759          1486.783367          1182.983867

                             ****ORCA TERMINATED NORMALLY****
TOTAL RUN TIME: 0 days 0 hours 0 minutes 26 seconds 564 msec
