                         Program Version 6.0.0  -   RELEASE  -
|  1> ! pbe def2-sv(p) def2/J RI DEFGRID1 loosescf d4 GCP(DFT/SV(P)) printgap
|  2> %output
|  3>     printlevel normal
|  4> end
|  5> * xyz 0 1
|  6> C -2.5460244535 -0.7020831399 -0.3452707638
|  7> C -1.1632340258 -0.3368806911 0.2144018579
|  8> H -1.1942434459 -0.321246273 1.317492285
|  9> C -0.7176164224 1.0468936576 -0.294530997
| 10> H -0.7436656431 1.0469156624 -1.3895720942
| 11> C 0.7194986996 1.3299142943 0.1673010393
| 12> H 0.7334060423 1.4313616928 1.2668628638
| 13> C 1.6533903909 0.1729701172 -0.2116114835
| 14> H 1.7292169628 0.1316815835 -1.3090320218
| 15> C 1.0624951014 -1.1586276042 0.2956559105
| 16> H 1.0626909087 -1.1430518354 1.3981923129
| 17> O -0.245867358 -1.3281599378 -0.2048412576
| 18> O 1.8050261257 -2.2575082188 -0.0667815521
| 19> O 2.9205224612 0.3311690091 0.3678409439
| 20> O 1.2297377824 2.502468689 -0.4222366216
| 21> O -1.5844656585 2.0770886649 0.103345363
| 22> O -3.1637546313 -1.7710512474 0.3186031481
| 23> H -2.4192415583 -1.028343348 -1.3788540844
| 24> H -3.1751894626 0.1961730835 -0.3241704105
| 25> H 1.7386905874 -2.3965417495 -1.0250412797
| 26> H 3.2746097963 1.1923888916 0.0957302462
| 27> H 0.5426301895 3.1864352271 -0.4061209449
| 28> H -1.636241037 2.1125728611 1.0708265943
| 29> H -3.355274617 -1.5256119911 1.2350755749
| 30> *
| 31>
| 32>                          ****END OF INPUT****

CARTESIAN COORDINATES (ANGSTROEM)
---------------------------------
  C     -2.546024   -0.702083   -0.345271
  C     -1.163234   -0.336881    0.214402
  H     -1.194243   -0.321246    1.317492
  C     -0.717616    1.046894   -0.294531
  H     -0.743666    1.046916   -1.389572
  C      0.719499    1.329914    0.167301
  H      0.733406    1.431362    1.266863
  C      1.653390    0.172970   -0.211611
  H      1.729217    0.131682   -1.309032
  C      1.062495   -1.158628    0.295656
  H      1.062691   -1.143052    1.398192
  O     -0.245867   -1.328160   -0.204841
  O      1.805026   -2.257508   -0.066782
  O      2.920522    0.331169    0.367841
  O      1.229738    2.502469   -0.422237
  O     -1.584466    2.077089    0.103345
  O     -3.163755   -1.771051    0.318603
  H     -2.419242   -1.028343   -1.378854
  H     -3.175189    0.196173   -0.324170
  H      1.738691   -2.396542   -1.025041
  H      3.274610    1.192389    0.095730
  H      0.542630    3.186435   -0.406121
  H     -1.636241    2.112573    1.070827
  H     -3.355275   -1.525612    1.235076

 Total Charge           Charge          ....    0
 Multiplicity           Mult            ....    1
 Number of Electrons    NEL             ....   96
 Basis Dimension        Dim             ....  192

ORBITAL ENERGIES
----------------

  NO   OCC          E(Eh)            E(eV)
   0   2.0000     -18.778988      -511.0022
   1   2.0000     -18.773315      -510.8479
   2   2.0000     -18.761337      -510.5219
   3   2.0000     -18.755265      -510.3567
   4   2.0000     -18.749608      -510.2028
   5   2.0000     -18.749285      -510.1940
   6   2.0000      -9.986402      -271.7438
   7   2.0000      -9.954416      -270.8734
   8   2.0000      -9.953479      -270.8479
   9   2.0000      -9.949079      -270.7282
  10   2.0000      -9.942030      -270.5364
  11   2.0000      -9.935653      -270.3629
  12   2.0000      -0.984794       -26.7976
  13   2.0000      -0.961220       -26.1561
  14   2.0000      -0.940231       -25.5850
  15   2.0000      -0.928294       -25.2602
  16   2.0000      -0.920181       -25.0394
  17   2.0000      -0.912279       -24.8244
  18   2.0000      -0.710420       -19.3315
  19   2.0000      -0.694065       -18.8865
  20   2.0000      -0.619910       -16.8686
  21   2.0000      -0.591595       -16.0981
  22   2.0000      -0.566653       -15.4194
  23   2.0000      -0.549984       -14.9658
  24   2.0000      -0.505160       -13.7461
  25   2.0000      -0.497837       -13.5468
  26   2.0000      -0.480758       -13.0821
  27   2.0000      -0.460093       -12.5198
  28   2.0000      -0.446847       -12.1593
  29   2.0000      -0.434058       -11.8113
  30   2.0000      -0.421717       -11.4755
  31   2.0000      -0.412768       -11.2320
  32   2.0000      -0.396091       -10.7782
  33   2.0000      -0.382221       -10.4008
  34   2.0000      -0.362664        -9.8686
  35   2.0000      -0.355174        -9.6648
  36   2.0000      -0.323031        -8.7901
  37   2.0000      -0.315428        -8.5832
  38   2.0000      -0.310437        -8.4474
  39   2.0000      -0.300770        -8.1844
  40   2.0000      -0.286880        -7.8064
  41   2.0000      -0.277145        -7.5415
  42   2.0000      -0.268577        -7.3084
  43   2.0000      -0.240161        -6.5351
  44   2.0000      -0.236827        -6.4444
  45   2.0000      -0.223560        -6.0834
  46   2.0000      -0.217594        -5.9210
  47   2.0000      -0.207294        -5.6408
  48   0.0000      -0.001081        -0.0294
  49   0.0000       0.018024         0.4905
  50   0.0000       0.030866         0.8399
  51   0.0000       0.043077         1.1722
  52   0.0000       0.047090         1.2814

MULLIKEN ATOMIC CHARGES
-----------------------
   0 C :    0.099554
   1 C :   -0.008697
   2 H :    0.023778
   3 C :    0.016323
   4 H :    0.072930
   5 C :    0.058577
   6 H :    0.037062
   7 C :    0.048189
   8 H :    0.041916
   9 C :    0.205224
  10 H :    0.052634
  11 O :   -0.294733
  12 O :   -0.366424
  13 O :   -0.407415
  14 O :   -0.420652
  15 O :   -0.412189
  16 O :   -0.425098
  17 H :    0.089307
  18 H :    0.078900
  19 H :    0.302063
  20 H :    0.309948
  21 H :    0.304954
  22 H :    0.300919
  23 H :    0.292928
Sum of atomic charges:   -0.0000000

LOEWDIN ATOMIC CHARGES
----------------------
   0 C :   -0.128747
   1 C :   -0.077034
   2 H :    0.090251
   3 C :   -0.087013
   4 H :    0.122278
   5 C :   -0.087255
   6 H :    0.095283
   7 C :   -0.088489
   8 H :    0.101008
   9 C :    0.008071
  10 H :    0.099230
  11 O :   -0.147330
  12 O :   -0.277804
  13 O :   -0.314183
  14 O :   -0.327716
  15 O :   -0.305266
  16 O :   -0.328686
  17 H :    0.122323
  18 H :    0.100449
  19 H :    0.288721
  20 H :    0.290107
  21 H :    0.284988
  22 H :    0.285592
  23 H :    0.281222

  Mayer bond orders larger than 0.100000
B(  0-C ,  1-C ) :   1.0233 B(  0-C , 16-O ) :   1.0921 B(  0-C , 17-H ) :   0.9046
B(  0-C , 18-H ) :   0.9154 B(  1-C ,  2-H ) :   0.8681 B(  1-C ,  3-C ) :   0.9750
B(  1-C , 11-O ) :   1.0039 B(  3-C ,  4-H ) :   0.8652 B(  3-C ,  5-C ) :   1.0061
B(  3-C , 15-O ) :   0.9980 B(  5-C ,  6-H ) :   0.8672 B(  5-C ,  7-C ) :   1.0089
B(  5-C , 14-O ) :   1.0871 B(  7-C ,  8-H ) :   0.8624 B(  7-C ,  9-C ) :   0.9754
B(  7-C , 13-O ) :   1.0870 B(  9-C , 10-H ) :   0.8780 B(  9-C , 11-O ) :   1.0000
B(  9-C , 12-O ) :   1.1664 B( 12-O , 19-H ) :   0.8426 B( 13-O , 20-H ) :   0.8394
B( 14-O , 21-H ) :   0.8312 B( 15-O , 22-H ) :   0.8444 B( 16-O , 23-H ) :   0.8537

Dispersion correction           -0.023537770
FINAL SINGLE POINT ENERGY      -685.694143487483

DIPOLE MOMENT
-------------

Method             : SCF
Type of density    : Electron Density
Multiplicity       :   1
Irrep              :   0
Energy             :  -685.8232008641055018 Eh
Relativity type    :
Basis              : AO
                                X                 Y                 Z
Electronic contribution:      2.651480829      -1.445559169      -0.186678895
Nuclear contribution   :     -3.215515358       2.697887554       0.518717877
                        -----------------------------------------
Total Dipole Moment    :     -0.564034529       1.252328385       0.332038982
                        -----------------------------------------
Magnitude (a.u.)       :      1.413050324
Magnitude (Debye)      :      3.591688487

Rotational constants in cm-1:             0.039406             0.025407             0.016245
Rotational constants in MHz :          1181.364142           761.697600           487.027312

                             ****ORCA TERMINATED NORMALLY****
TOTAL RUN TIME: 0 days 0 hours 0 minutes 11 seconds 645 msec
