                         Program Version 6.0.0  -   RELEASE  -
|  1> ! r2scan-3c def2/J RI DEFGRID2 scfconv6 printgap
|  2> %output
|  3>     printlevel normal
|  4> end
|  5> * xyz 0 1
|  6> C 2.1248514846 -2.0974523719 -0.0403727664
|  7> C 1.1680925377 -0.9672359262 0.1091950613
|  8> C 1.5480360117 0.3139252615 -0.0225779945
|  9> C 0.6337487153 1.4295830973 0.1219372077
| 10> O 0.9888197992 2.593988135 -0.0498526318
| 11> C -0.776669948 1.0891124326 0.5367085542
| 12> C -1.253757349 -0.2599804893 -0.0114877558
| 13> C -0.2463688986 -1.3336236168 0.421427268
| 14> C -1.3416429223 -0.203048403 -1.5382189649
| 15> C -2.6340544259 -0.5888234399 0.5604491264
| 16> H 3.1474961526 -1.7433592831 -0.1298330243
| 17> H 1.8727662432 -2.6725614974 -0.9304416775
| 18> H 2.0472601341 -2.7678731678 0.8132230667
| 19> H 2.5709824925 0.5732514228 -0.2582607103
| 20> H -0.7770016894 1.0588467413 1.6309510617
| 21> H -1.4380368591 1.9019228635 0.2305425485
| 22> H -0.3227471313 -1.4760362816 1.5043901612
| 23> H -0.49173053 -2.2878993868 -0.0474481252
| 24> H -0.3723890749 0.0280691392 -1.9744538479
| 25> H -2.0434565697 0.5679983369 -1.847458681
| 26> H -1.6834761991 -1.1558808684 -1.9349121129
| 27> H -2.6056588353 -0.622237629 1.6469301674
| 28> H -2.9748183081 -1.5538626373 0.1940094549
| 29> H -3.3571990991 0.1655570409 0.2608009173
| 30> *
| 31>
| 32>                          ****END OF INPUT****

CARTESIAN COORDINATES (ANGSTROEM)
---------------------------------
  C      2.124851   -2.097452   -0.040373
  C      1.168093   -0.967236    0.109195
  C      1.548036    0.313925   -0.022578
  C      0.633749    1.429583    0.121937
  O      0.988820    2.593988   -0.049853
  C     -0.776670    1.089112    0.536709
  C     -1.253757   -0.259980   -0.011488
  C     -0.246369   -1.333624    0.421427
  C     -1.341643   -0.203048   -1.538219
  C     -2.634054   -0.588823    0.560449
  H      3.147496   -1.743359   -0.129833
  H      1.872766   -2.672561   -0.930442
  H      2.047260   -2.767873    0.813223
  H      2.570982    0.573251   -0.258261
  H     -0.777002    1.058847    1.630951
  H     -1.438037    1.901923    0.230543
  H     -0.322747   -1.476036    1.504390
  H     -0.491731   -2.287899   -0.047448
  H     -0.372389    0.028069   -1.974454
  H     -2.043457    0.567998   -1.847459
  H     -1.683476   -1.155881   -1.934912
  H     -2.605659   -0.622238    1.646930
  H     -2.974818   -1.553863    0.194009
  H     -3.357199    0.165557    0.260801

 Total Charge           Charge          ....    0
 Multiplicity           Mult            ....    1
 Number of Electrons    NEL             ....   76
 Basis Dimension        Dim             ....  265

ORBITAL ENERGIES
----------------

  NO   OCC          E(Eh)            E(eV)
   0   2.0000     -18.921012      -514.8669
   1   2.0000     -10.104588      -274.9598
   2   2.0000     -10.070092      -274.0211
   3   2.0000     -10.058494      -273.7055
   4   2.0000     -10.047361      -273.4026
   5   2.0000     -10.043032      -273.2848
   6   2.0000     -10.031876      -272.9812
   7   2.0000     -10.030088      -272.9326
   8   2.0000     -10.026330      -272.8303
   9   2.0000     -10.022780      -272.7337
  10   2.0000      -0.982997       -26.7487
  11   2.0000      -0.833567       -22.6825
  12   2.0000      -0.775548       -21.1037
  13   2.0000      -0.712775       -19.3956
  14   2.0000      -0.674420       -18.3519
  15   2.0000      -0.665142       -18.0994
  16   2.0000      -0.660306       -17.9678
  17   2.0000      -0.549482       -14.9522
  18   2.0000      -0.535353       -14.5677
  19   2.0000      -0.480445       -13.0736
  20   2.0000      -0.451454       -12.2847
  21   2.0000      -0.451327       -12.2812
  22   2.0000      -0.423673       -11.5287
  23   2.0000      -0.417931       -11.3725
  24   2.0000      -0.401803       -10.9336
  25   2.0000      -0.394761       -10.7420
  26   2.0000      -0.376769       -10.2524
  27   2.0000      -0.371889       -10.1196
  28   2.0000      -0.364063        -9.9066
  29   2.0000      -0.358436        -9.7535
  30   2.0000      -0.351820        -9.5735
  31   2.0000      -0.338668        -9.2156
  32   2.0000      -0.332659        -9.0521
  33   2.0000      -0.306805        -8.3486
  34   2.0000      -0.300618        -8.1802
  35   2.0000      -0.294216        -8.0060
  36   2.0000      -0.241588        -6.5739
  37   2.0000      -0.201848        -5.4926
  38   0.0000      -0.077368        -2.1053
  39   0.0000       0.031451         0.8558
  40   0.0000       0.063536         1.7289
  41   0.0000       0.090882         2.4730
  42   0.0000       0.102972         2.8020

MULLIKEN ATOMIC CHARGES
-----------------------
   0 C :   -0.528887
   1 C :    0.196404
   2 C :   -0.287755
   3 C :    0.212060
   4 O :   -0.341469
   5 C :   -0.348320
   6 C :    0.107572
   7 C :   -0.362773
   8 C :   -0.497986
   9 C :   -0.483454
  10 H :    0.160404
  11 H :    0.169602
  12 H :    0.159624
  13 H :    0.169779
  14 H :    0.175371
  15 H :    0.183769
  16 H :    0.190730
  17 H :    0.168610
  18 H :    0.173229
  19 H :    0.160115
  20 H :    0.151695
  21 H :    0.153017
  22 H :    0.156458
  23 H :    0.162206
Sum of atomic charges:    0.0000000

LOEWDIN ATOMIC CHARGES
----------------------
   0 C :   -0.384767
   1 C :   -0.061405
   2 C :   -0.174406
   3 C :    0.220169
   4 O :   -0.471855
   5 C :   -0.251297
   6 C :   -0.190241
   7 C :   -0.265546
   8 C :   -0.390920
   9 C :   -0.400178
  10 H :    0.163668
  11 H :    0.169936
  12 H :    0.167798
  13 H :    0.183204
  14 H :    0.184872
  15 H :    0.184971
  16 H :    0.182629
  17 H :    0.172522
  18 H :    0.167300
  19 H :    0.161823
  20 H :    0.157055
  21 H :    0.156418
  22 H :    0.157695
  23 H :    0.160555

  Mayer bond orders larger than 0.100000
B(  0-C ,  1-C ) :   0.8494 B(  0-C , 10-H ) :   0.9909 B(  0-C , 11-H ) :   0.9717
B(  0-C , 12-H ) :   0.9580 B(  1-C ,  2-C ) :   1.6448 B(  1-C ,  7-C ) :   0.8302
B(  2-C ,  3-C ) :   1.1070 B(  2-C , 13-H ) :   0.9382 B(  3-C ,  4-O ) :   1.9118
B(  3-C ,  5-C ) :   0.9432 B(  5-C ,  6-C ) :   0.8729 B(  5-C , 14-H ) :   0.9449
B(  5-C , 15-H ) :   0.9638 B(  6-C ,  7-C ) :   0.8987 B(  6-C ,  8-C ) :   0.9555
B(  6-C ,  9-C ) :   0.9403 B(  7-C , 16-H ) :   0.9691 B(  7-C , 17-H ) :   0.9897
B(  8-C , 18-H ) :   0.9605 B(  8-C , 19-H ) :   0.9713 B(  8-C , 20-H ) :   0.9750
B(  9-C , 21-H ) :   0.9831 B(  9-C , 22-H ) :   0.9763 B(  9-C , 23-H ) :   0.9758

Dispersion correction           -0.008503780
FINAL SINGLE POINT ENERGY      -426.498543038610

DIPOLE MOMENT
-------------

Method             : SCF
Type of density    : Electron Density
Multiplicity       :   1
Irrep              :   0
Energy             :  -426.5001763823080410 Eh
Relativity type    :
Basis              : AO
                                X                 Y                 Z
Electronic contribution:      5.604844279       7.585999276       0.968775333
Nuclear contribution   :     -6.015883968      -9.328257548      -0.790638940
                        -----------------------------------------
Total Dipole Moment    :     -0.411039689      -1.742258272       0.178136394
                        -----------------------------------------
Magnitude (a.u.)       :      1.798930262
Magnitude (Debye)      :      4.572517342

Rotational constants in cm-1:             0.050710             0.045285             0.028714
Rotational constants in MHz :          1520.246839          1357.598349           860.818656

                             ****ORCA TERMINATED NORMALLY****
TOTAL RUN TIME: 0 days 0 hours 0 minutes 46 seconds 456 msec
