                         Program Version 6.0.0  -   RELEASE  -
|  1> ! r2scan-3c def2/J RI DEFGRID2 scfconv6 printgap
|  2> %output
|  3>     printlevel normal
|  4> end
|  5> %cpcm
|  6>     smd true
|  7>     smdsolvent "water"
|  8> end
|  9> * xyz 0 1
| 10> C 2.1248514846 -2.0974523719 -0.0403727664
| 11> C 1.1680925377 -0.9672359262 0.1091950613
| 12> C 1.5480360117 0.3139252615 -0.0225779945
| 13> C 0.6337487153 1.4295830973 0.1219372077
| 14> O 0.9888197992 2.593988135 -0.0498526318
| 15> C -0.776669948 1.0891124326 0.5367085542
| 16> C -1.253757349 -0.2599804893 -0.0114877558
| 17> C -0.2463688986 -1.3336236168 0.421427268
| 18> C -1.3416429223 -0.203048403 -1.5382189649
| 19> C -2.6340544259 -0.5888234399 0.5604491264
| 20> H 3.1474961526 -1.7433592831 -0.1298330243
| 21> H 1.8727662432 -2.6725614974 -0.9304416775
| 22> H 2.0472601341 -2.7678731678 0.8132230667
| 23> H 2.5709824925 0.5732514228 -0.2582607103
| 24> H -0.7770016894 1.0588467413 1.6309510617
| 25> H -1.4380368591 1.9019228635 0.2305425485
| 26> H -0.3227471313 -1.4760362816 1.5043901612
| 27> H -0.49173053 -2.2878993868 -0.0474481252
| 28> H -0.3723890749 0.0280691392 -1.9744538479
| 29> H -2.0434565697 0.5679983369 -1.847458681
| 30> H -1.6834761991 -1.1558808684 -1.9349121129
| 31> H -2.6056588353 -0.622237629 1.6469301674
| 32> H -2.9748183081 -1.5538626373 0.1940094549
| 33> H -3.3571990991 0.1655570409 0.2608009173
| 34> *
| 35>
| 36>                          ****END OF INPUT****

CARTESIAN COORDINATES (ANGSTROEM)
---------------------------------
  C      2.124851   -2.097452   -0.040373
  C      1.168093   -0.967236    0.109195
  C      1.548036    0.313925   -0.022578
  C      0.633749    1.429583    0.121937
  O      0.988820    2.593988   -0.049853
  C     -0.776670    1.089112    0.536709
  C     -1.253757   -0.259980   -0.011488
  C     -0.246369   -1.333624    0.421427
  C     -1.341643   -0.203048   -1.538219
  C     -2.634054   -0.588823    0.560449
  H      3.147496   -1.743359   -0.129833
  H      1.872766   -2.672561   -0.930442
  H      2.047260   -2.767873    0.813223
  H      2.570982    0.573251   -0.258261
  H     -0.777002    1.058847    1.630951
  H     -1.438037    1.901923    0.230543
  H     -0.322747   -1.476036    1.504390
  H     -0.491731   -2.287899   -0.047448
  H     -0.372389    0.028069   -1.974454
  H     -2.043457    0.567998   -1.847459
  H     -1.683476   -1.155881   -1.934912
  H     -2.605659   -0.622238    1.646930
  H     -2.974818   -1.553863    0.194009
  H     -3.357199    0.165557    0.260801

 Total Charge           Charge          ....    0
 Multiplicity           Mult            ....    1
 Number of Electrons    NEL             ....   76
 Basis Dimension        Dim             ....  265

ORBITAL ENERGIES
----------------

  NO   OCC          E(Eh)            E(eV)
   0   2.0000     -18.937247      -515.3087
   1   2.0000     -10.114813      -275.2380
   2   2.0000     -10.065807      -273.9045
   3   2.0000     -10.046032      -273.3664
   4   2.0000     -10.029514      -272.9170
   5   2.0000     -10.025319      -272.8028
   6   2.0000     -10.024084      -272.7692
   7   2.0000     -10.023827      -272.7622
   8   2.0000     -10.009590      -272.3748
   9   2.0000     -10.008874      -272.3553
  10   2.0000      -1.001667       -27.2567
  11   2.0000      -0.823079       -22.3971
  12   2.0000      -0.763793       -20.7839
  13   2.0000      -0.706212       -19.2170
  14   2.0000      -0.658970       -17.9315
  15   2.0000      -0.654546       -17.8111
  16   2.0000      -0.646694       -17.5974
  17   2.0000      -0.544975       -14.8295
  18   2.0000      -0.525372       -14.2961
  19   2.0000      -0.470449       -12.8016
  20   2.0000      -0.442938       -12.0530
  21   2.0000      -0.441576       -12.0159
  22   2.0000      -0.416735       -11.3399
  23   2.0000      -0.409734       -11.1494
  24   2.0000      -0.401174       -10.9165
  25   2.0000      -0.378733       -10.3059
  26   2.0000      -0.369238       -10.0475
  27   2.0000      -0.364581        -9.9208
  28   2.0000      -0.354185        -9.6379
  29   2.0000      -0.347270        -9.4497
  30   2.0000      -0.342658        -9.3242
  31   2.0000      -0.327766        -8.9190
  32   2.0000      -0.325148        -8.8477
  33   2.0000      -0.297787        -8.1032
  34   2.0000      -0.290908        -7.9160
  35   2.0000      -0.281467        -7.6591
  36   2.0000      -0.239168        -6.5081
  37   2.0000      -0.219049        -5.9606
  38   0.0000      -0.078714        -2.1419
  39   0.0000       0.033905         0.9226
  40   0.0000       0.079159         2.1540
  41   0.0000       0.108082         2.9411
  42   0.0000       0.113156         3.0791

MULLIKEN ATOMIC CHARGES
-----------------------
   0 C :   -0.562884
   1 C :    0.205044
   2 C :   -0.350852
   3 C :    0.265359
   4 O :   -0.468766
   5 C :   -0.370338
   6 C :    0.159167
   7 C :   -0.364245
   8 C :   -0.545692
   9 C :   -0.541603
  10 H :    0.174988
  11 H :    0.193561
  12 H :    0.183879
  13 H :    0.189246
  14 H :    0.204193
  15 H :    0.190237
  16 H :    0.215486
  17 H :    0.192287
  18 H :    0.174185
  19 H :    0.171854
  20 H :    0.170306
  21 H :    0.169341
  22 H :    0.172183
  23 H :    0.173064
Sum of atomic charges:    0.0000000

LOEWDIN ATOMIC CHARGES
----------------------
   0 C :   -0.386051
   1 C :   -0.026598
   2 C :   -0.200285
   3 C :    0.227047
   4 O :   -0.570919
   5 C :   -0.251730
   6 C :   -0.182073
   7 C :   -0.261171
   8 C :   -0.398508
   9 C :   -0.405678
  10 H :    0.167780
  11 H :    0.181618
  12 H :    0.178944
  13 H :    0.187322
  14 H :    0.197436
  15 H :    0.186345
  16 H :    0.194789
  17 H :    0.183324
  18 H :    0.165546
  19 H :    0.163461
  20 H :    0.163178
  21 H :    0.161212
  22 H :    0.162540
  23 H :    0.162471

  Mayer bond orders larger than 0.100000
B(  0-C ,  1-C ) :   0.8589 B(  0-C , 10-H ) :   0.9869 B(  0-C , 11-H ) :   0.9579
B(  0-C , 12-H ) :   0.9479 B(  1-C ,  2-C ) :   1.6319 B(  1-C ,  7-C ) :   0.8386
B(  2-C ,  3-C ) :   1.1048 B(  2-C , 13-H ) :   0.9323 B(  3-C ,  4-O ) :   1.8266
B(  3-C ,  5-C ) :   0.9532 B(  5-C ,  6-C ) :   0.8706 B(  5-C , 14-H ) :   0.9237
B(  5-C , 15-H ) :   0.9692 B(  6-C ,  7-C ) :   0.8959 B(  6-C ,  8-C ) :   0.9447
B(  6-C ,  9-C ) :   0.9202 B(  7-C , 16-H ) :   0.9564 B(  7-C , 17-H ) :   0.9817
B(  8-C , 18-H ) :   0.9596 B(  8-C , 19-H ) :   0.9722 B(  8-C , 20-H ) :   0.9712
B(  9-C , 21-H ) :   0.9804 B(  9-C , 22-H ) :   0.9739 B(  9-C , 23-H ) :   0.9753

Dispersion correction           -0.008503780
FINAL SINGLE POINT ENERGY      -426.508541421537

DIPOLE MOMENT
-------------

Method             : SCF
Type of density    : Electron Density
Multiplicity       :   1
Irrep              :   0
Energy             :  -426.5101747652350923 Eh
Relativity type    :
Basis              : AO
                                X                 Y                 Z
Electronic contribution:      5.390538584       6.611899533       1.125693553
Nuclear contribution   :     -6.015883968      -9.328257548      -0.790638940
                        -----------------------------------------
Total Dipole Moment    :     -0.625345383      -2.716358015       0.335054613
                        -----------------------------------------
Magnitude (a.u.)       :      2.807475612
Magnitude (Debye)      :      7.136035895

Rotational constants in cm-1:             0.050710             0.045285             0.028714
Rotational constants in MHz :          1520.246839          1357.598349           860.818656

                             ****ORCA TERMINATED NORMALLY****
TOTAL RUN TIME: 0 days 0 hours 0 minutes 57 seconds 955 msec
