                         Program Version 6.0.0  -   RELEASE  -
|  1> ! wb97x-v def2-tzvp def2/J RIJCOSX DEFGRID2 scfconv7 GCP(DFT/TZ) printgap
|  2> %output
|  3>     printlevel normal
|  4> end
|  5> * xyz 0 1
|  6> C -1.1502364040146396 -1.28930528056904 -0.5936668426677134
|  7> C -0.7002144661204767 -0.22737754690398332 0.40318041390055537
|  8> C -1.5467771876320606 1.023959391591574 0.37360614791573704
|  9> N 0.7549264853667055 0.09582057519221239 0.062192888895250015
| 10> O 1.6100690255920789 -0.6903732477524265 0.4570761721104997
| 11> O 0.9982511918908421 1.084554348572765 -0.6178220470497245
| 12> H -0.5186241296304084 -2.179241972424349 -0.5410644906075347
| 13> H -2.1755043353507553 -1.5741167895193993 -0.34371189403720553
| 14> H -1.1382568977166805 -0.8895023814310292 -1.611990377380688
| 15> H -0.6391873930990037 -0.6516779142193494 1.4084068389839621
| 16> H -1.143148724084303 1.7983481635331233 1.0305915198681799
| 17> H -2.5451124722813607 0.7567691299537279 0.7312425339405977
| 18> H -1.6388350487629657 1.4209966369496942 -0.6400445062814749
| 19> *
| 20>
| 21>                          ****END OF INPUT****

CARTESIAN COORDINATES (ANGSTROEM)
---------------------------------
  C     -1.150236   -1.289305   -0.593667
  C     -0.700214   -0.227378    0.403180
  C     -1.546777    1.023959    0.373606
  N      0.754926    0.095821    0.062193
  O      1.610069   -0.690373    0.457076
  O      0.998251    1.084554   -0.617822
  H     -0.518624   -2.179242   -0.541064
  H     -2.175504   -1.574117   -0.343712
  H     -1.138257   -0.889502   -1.611990
  H     -0.639187   -0.651678    1.408407
  H     -1.143149    1.798348    1.030592
  H     -2.545112    0.756769    0.731243
  H     -1.638835    1.420997   -0.640045

 Total Charge           Charge          ....    0
 Multiplicity           Mult            ....    1
 Number of Electrons    NEL             ....   48
 Basis Dimension        Dim             ....  228

ORBITAL ENERGIES
----------------

  NO   OCC          E(Eh)            E(eV)
   0   2.0000     -21.708373      -590.7149
   1   2.0000     -21.705777      -590.6442
   2   2.0000     -16.763255      -456.1514
   3   2.0000     -12.125880      -329.9620
   4   2.0000     -12.068485      -328.4002
   5   2.0000     -12.062960      -328.2498
   6   2.0000      -1.900154       -51.7058
   7   2.0000      -1.746701       -47.5302
   8   2.0000      -1.396505       -38.0008
   9   2.0000      -1.269778       -34.5524
  10   2.0000      -1.216167       -33.0936
  11   2.0000      -1.165443       -31.7133
  12   2.0000      -1.137056       -30.9409
  13   2.0000      -1.073065       -29.1996
  14   2.0000      -1.036127       -28.1944
  15   2.0000      -0.929757       -25.3000
  16   2.0000      -0.908789       -24.7294
  17   2.0000      -0.899840       -24.4859
  18   2.0000      -0.893068       -24.3016
  19   2.0000      -0.881563       -23.9885
  20   2.0000      -0.841705       -22.9040
  21   2.0000      -0.838795       -22.8248
  22   2.0000      -0.822056       -22.3693
  23   2.0000      -0.809250       -22.0208
  24   0.0000      -0.473835       -12.8937
  25   0.0000      -0.230932        -6.2840
  26   0.0000      -0.122565        -3.3352
  27   0.0000      -0.088087        -2.3970
  28   0.0000      -0.041457        -1.1281

MULLIKEN ATOMIC CHARGES
-----------------------
   0 C :   -0.368817
   1 C :   -0.005868
   2 C :   -0.323523
   3 N :    0.411437
   4 O :   -0.312804
   5 O :   -0.304877
   6 H :    0.147194
   7 H :    0.120581
   8 H :    0.131699
   9 H :    0.120590
  10 H :    0.134155
  11 H :    0.118164
  12 H :    0.132070
Sum of atomic charges:    0.0000000

LOEWDIN ATOMIC CHARGES
----------------------
   0 C :   -0.268154
   1 C :   -0.281814
   2 C :   -0.276762
   3 N :   -0.029853
   4 O :   -0.041324
   5 O :   -0.029885
   6 H :    0.128823
   7 H :    0.129820
   8 H :    0.128513
   9 H :    0.154280
  10 H :    0.127807
  11 H :    0.129405
  12 H :    0.129143

  Mayer bond orders larger than 0.100000
B(  0-C ,  1-C ) :   0.9747 B(  0-C ,  6-H ) :   0.9713 B(  0-C ,  7-H ) :   0.9710
B(  0-C ,  8-H ) :   0.9680 B(  1-C ,  2-C ) :   0.9886 B(  1-C ,  3-N ) :   0.8542
B(  1-C ,  9-H ) :   0.9612 B(  2-C , 10-H ) :   0.9760 B(  2-C , 11-H ) :   0.9642
B(  2-C , 12-H ) :   0.9620 B(  3-N ,  4-O ) :   1.6599 B(  3-N ,  5-O ) :   1.6541
B(  4-O ,  5-O ) :   0.2066

FINAL SINGLE POINT ENERGY      -323.669520789802

DIPOLE MOMENT
-------------

Method             : SCF
Type of density    : Electron Density
Multiplicity       :   1
Irrep              :   0
Energy             :  -323.6784099301023616 Eh
Relativity type    :
Basis              : AO
                                X                 Y                 Z
Electronic contribution:      7.737014099       0.976657892       0.275101498
Nuclear contribution   :     -9.270465308      -1.260317807      -0.010133708
                        -----------------------------------------
Total Dipole Moment    :     -1.533451209      -0.283659916       0.264967789
                        -----------------------------------------
Magnitude (a.u.)       :      1.581816516
Magnitude (Debye)      :      4.020658056

Rotational constants in cm-1:             0.171080             0.106950             0.081301
Rotational constants in MHz :          5128.842023          3206.281266          2437.342327

                             ****ORCA TERMINATED NORMALLY****
TOTAL RUN TIME: 0 days 0 hours 1 minutes 32 seconds 119 msec
