                         Program Version 6.0.0  -   RELEASE  -
|  1> ! wb97x-v def2-tzvp def2/J RIJCOSX DEFGRID2 scfconv7 GCP(DFT/TZ) printgap
|  2> %output
|  3>     printlevel normal
|  4> end
|  5> %cpcm
|  6>     smd true
|  7>     smdsolvent "water"
|  8> end
|  9> * xyz 0 1
| 10> C -1.1502364040146396 -1.28930528056904 -0.5936668426677134
| 11> C -0.7002144661204767 -0.22737754690398332 0.40318041390055537
| 12> C -1.5467771876320606 1.023959391591574 0.37360614791573704
| 13> N 0.7549264853667055 0.09582057519221239 0.062192888895250015
| 14> O 1.6100690255920789 -0.6903732477524265 0.4570761721104997
| 15> O 0.9982511918908421 1.084554348572765 -0.6178220470497245
| 16> H -0.5186241296304084 -2.179241972424349 -0.5410644906075347
| 17> H -2.1755043353507553 -1.5741167895193993 -0.34371189403720553
| 18> H -1.1382568977166805 -0.8895023814310292 -1.611990377380688
| 19> H -0.6391873930990037 -0.6516779142193494 1.4084068389839621
| 20> H -1.143148724084303 1.7983481635331233 1.0305915198681799
| 21> H -2.5451124722813607 0.7567691299537279 0.7312425339405977
| 22> H -1.6388350487629657 1.4209966369496942 -0.6400445062814749
| 23> *
| 24>
| 25>                          ****END OF INPUT****

CARTESIAN COORDINATES (ANGSTROEM)
---------------------------------
  C     -1.150236   -1.289305   -0.593667
  C     -0.700214   -0.227378    0.403180
  C     -1.546777    1.023959    0.373606
  N      0.754926    0.095821    0.062193
  O      1.610069   -0.690373    0.457076
  O      0.998251    1.084554   -0.617822
  H     -0.518624   -2.179242   -0.541064
  H     -2.175504   -1.574117   -0.343712
  H     -1.138257   -0.889502   -1.611990
  H     -0.639187   -0.651678    1.408407
  H     -1.143149    1.798348    1.030592
  H     -2.545112    0.756769    0.731243
  H     -1.638835    1.420997   -0.640045

 Total Charge           Charge          ....    0
 Multiplicity           Mult            ....    1
 Number of Electrons    NEL             ....   48
 Basis Dimension        Dim             ....  228

ORBITAL ENERGIES
----------------

  NO   OCC          E(Eh)            E(eV)
   0   2.0000     -21.721472      -591.0713
   1   2.0000     -21.719179      -591.0089
   2   2.0000     -16.772304      -456.3976
   3   2.0000     -12.109873      -329.5264
   4   2.0000     -12.044902      -327.7585
   5   2.0000     -12.040376      -327.6353
   6   2.0000      -1.912163       -52.0326
   7   2.0000      -1.759766       -47.8857
   8   2.0000      -1.390628       -37.8409
   9   2.0000      -1.267580       -34.4926
  10   2.0000      -1.194517       -32.5045
  11   2.0000      -1.167418       -31.7671
  12   2.0000      -1.152891       -31.3718
  13   2.0000      -1.082026       -29.4434
  14   2.0000      -1.022698       -27.8290
  15   2.0000      -0.936287       -25.4777
  16   2.0000      -0.910582       -24.7782
  17   2.0000      -0.905124       -24.6297
  18   2.0000      -0.894029       -24.3278
  19   2.0000      -0.861950       -23.4549
  20   2.0000      -0.821380       -22.3509
  21   2.0000      -0.817989       -22.2586
  22   2.0000      -0.799466       -21.7546
  23   2.0000      -0.787450       -21.4276
  24   0.0000      -0.482592       -13.1320
  25   0.0000      -0.230148        -6.2626
  26   0.0000      -0.124696        -3.3932
  27   0.0000      -0.090476        -2.4620
  28   0.0000      -0.019807        -0.5390

MULLIKEN ATOMIC CHARGES
-----------------------
   0 C :   -0.397477
   1 C :    0.024052
   2 C :   -0.381500
   3 N :    0.472662
   4 O :   -0.380105
   5 O :   -0.369136
   6 H :    0.149762
   7 H :    0.149446
   8 H :    0.144860
   9 H :    0.150130
  10 H :    0.149950
  11 H :    0.147497
  12 H :    0.139860
Sum of atomic charges:    0.0000000

LOEWDIN ATOMIC CHARGES
----------------------
   0 C :   -0.265112
   1 C :   -0.268179
   2 C :   -0.276759
   3 N :   -0.010504
   4 O :   -0.079106
   5 O :   -0.063965
   6 H :    0.128915
   7 H :    0.139194
   8 H :    0.131746
   9 H :    0.165458
  10 H :    0.130007
  11 H :    0.139330
  12 H :    0.128975

  Mayer bond orders larger than 0.100000
B(  0-C ,  1-C ) :   0.9674 B(  0-C ,  6-H ) :   0.9686 B(  0-C ,  7-H ) :   0.9660
B(  0-C ,  8-H ) :   0.9637 B(  1-C ,  2-C ) :   0.9893 B(  1-C ,  3-N ) :   0.8472
B(  1-C ,  9-H ) :   0.9524 B(  2-C , 10-H ) :   0.9734 B(  2-C , 11-H ) :   0.9602
B(  2-C , 12-H ) :   0.9594 B(  3-N ,  4-O ) :   1.6208 B(  3-N ,  5-O ) :   1.6259
B(  4-O ,  5-O ) :   0.2013

FINAL SINGLE POINT ENERGY      -323.675504342937

DIPOLE MOMENT
-------------

Method             : SCF
Type of density    : Electron Density
Multiplicity       :   1
Irrep              :   0
Energy             :  -323.6843934832367609 Eh
Relativity type    :
Basis              : AO
                                X                 Y                 Z
Electronic contribution:      7.277470719       0.872379025       0.401869739
Nuclear contribution   :     -9.270465308      -1.260317807      -0.010133708
                        -----------------------------------------
Total Dipole Moment    :     -1.992994590      -0.387938782       0.391736030
                        -----------------------------------------
Magnitude (a.u.)       :      2.067844542
Magnitude (Debye)      :      5.256043122

Rotational constants in cm-1:             0.171080             0.106950             0.081301
Rotational constants in MHz :          5128.842023          3206.281266          2437.342327

                             ****ORCA TERMINATED NORMALLY****
TOTAL RUN TIME: 0 days 0 hours 1 minutes 28 seconds 656 msec
