                         Program Version 6.0.0  -   RELEASE  -
|  1> ! r2scan-3c def2/J RI DEFGRID2 scfconv6 printgap
|  2> %output
|  3>     printlevel normal
|  4> end
|  5> * xyz 0 1
|  6> C -2.4084845019 0.008600451 0.0001719452
|  7> C -0.9733175473 0.5201651306 -0.0001834921
|  8> C 0.0296793123 -0.6390657343 -4.42327e-05
|  9> C 1.395690847 -0.1577773909 -0.0001639483
| 10> C 2.5152845854 0.2656802698 0.0001858896
| 11> H -2.5980159464 -0.5992680976 -0.8820064604
| 12> H -2.5977253426 -0.5985660739 0.8828854167
| 13> H -3.1078860991 0.8409531143 -2.57582e-05
| 14> H -0.8027590209 1.1417223555 -0.8820663505
| 15> H -0.8023943712 1.1422158298 0.8812838499
| 16> H -0.1256776031 -1.2613580358 -0.8857339691
| 17> H -0.1256517706 -1.2611592735 0.8857924861
| 18> H 3.5007582689 0.6240263671 0.0002740059
| 19> *
| 20>
| 21>                          ****END OF INPUT****

CARTESIAN COORDINATES (ANGSTROEM)
---------------------------------
  C     -2.408485    0.008600    0.000172
  C     -0.973318    0.520165   -0.000183
  C      0.029679   -0.639066   -0.000044
  C      1.395691   -0.157777   -0.000164
  C      2.515285    0.265680    0.000186
  H     -2.598016   -0.599268   -0.882006
  H     -2.597725   -0.598566    0.882885
  H     -3.107886    0.840953   -0.000026
  H     -0.802759    1.141722   -0.882066
  H     -0.802394    1.142216    0.881284
  H     -0.125678   -1.261358   -0.885734
  H     -0.125652   -1.261159    0.885792
  H      3.500758    0.624026    0.000274

 Total Charge           Charge          ....    0
 Multiplicity           Mult            ....    1
 Number of Electrons    NEL             ....   38
 Basis Dimension        Dim             ....  135

ORBITAL ENERGIES
----------------

  NO   OCC          E(Eh)            E(eV)
   0   2.0000     -10.056119      -273.6409
   1   2.0000     -10.037593      -273.1368
   2   2.0000     -10.029780      -272.9242
   3   2.0000     -10.024217      -272.7728
   4   2.0000     -10.015520      -272.5361
   5   2.0000      -0.781968       -21.2784
   6   2.0000      -0.715784       -19.4775
   7   2.0000      -0.659864       -17.9558
   8   2.0000      -0.570688       -15.5292
   9   2.0000      -0.498323       -13.5601
  10   2.0000      -0.448289       -12.1986
  11   2.0000      -0.438306       -11.9269
  12   2.0000      -0.394737       -10.7413
  13   2.0000      -0.377145       -10.2627
  14   2.0000      -0.338351        -9.2070
  15   2.0000      -0.324742        -8.8367
  16   2.0000      -0.312175        -8.4947
  17   2.0000      -0.243587        -6.6283
  18   2.0000      -0.243084        -6.6147
  19   0.0000       0.025129         0.6838
  20   0.0000       0.029578         0.8048
  21   0.0000       0.090552         2.4640
  22   0.0000       0.110332         3.0023
  23   0.0000       0.131993         3.5917

MULLIKEN ATOMIC CHARGES
-----------------------
   0 C :   -0.469247
   1 C :   -0.202334
   2 C :   -0.506396
   3 C :    0.104081
   4 C :   -0.136680
   5 H :    0.142982
   6 H :    0.142984
   7 H :    0.151077
   8 H :    0.145978
   9 H :    0.145998
  10 H :    0.162685
  11 H :    0.162664
  12 H :    0.156208
Sum of atomic charges:    0.0000000

LOEWDIN ATOMIC CHARGES
----------------------
   0 C :   -0.423602
   1 C :   -0.296507
   2 C :   -0.279798
   3 C :   -0.080925
   4 C :   -0.219335
   5 H :    0.150424
   6 H :    0.150421
   7 H :    0.153868
   8 H :    0.158144
   9 H :    0.158148
  10 H :    0.175128
  11 H :    0.175134
  12 H :    0.178898

  Mayer bond orders larger than 0.100000
B(  0-C ,  1-C ) :   0.8930 B(  0-C ,  5-H ) :   0.9845 B(  0-C ,  6-H ) :   0.9845
B(  0-C ,  7-H ) :   0.9729 B(  1-C ,  2-C ) :   0.9333 B(  1-C ,  8-H ) :   0.9559
B(  1-C ,  9-H ) :   0.9559 B(  2-C ,  3-C ) :   1.0315 B(  2-C , 10-H ) :   0.9956
B(  2-C , 11-H ) :   0.9955 B(  3-C ,  4-C ) :   2.5893 B(  4-C , 12-H ) :   1.0561

Dispersion correction           -0.002667332
FINAL SINGLE POINT ENERGY      -195.210297222756

DIPOLE MOMENT
-------------

Method             : SCF
Type of density    : Electron Density
Multiplicity       :   1
Irrep              :   0
Energy             :  -195.2122928843717773 Eh
Relativity type    :
Basis              : AO
                                X                 Y                 Z
Electronic contribution:      5.866401533      -0.065170041      -0.000337169
Nuclear contribution   :     -6.247619675       0.026800005       0.000378290
                        -----------------------------------------
Total Dipole Moment    :     -0.381218142      -0.038370035       0.000041121
                        -----------------------------------------
Magnitude (a.u.)       :      0.383144272
Magnitude (Debye)      :      0.973875344

Rotational constants in cm-1:             0.777345             0.075869             0.071905
Rotational constants in MHz :         23304.204861          2274.502303          2155.667987

                             ****ORCA TERMINATED NORMALLY****
TOTAL RUN TIME: 0 days 0 hours 0 minutes 11 seconds 187 msec
