                         Program Version 6.0.0  -   RELEASE  -
|  1> ! r2scan-3c def2/J RI DEFGRID2 scfconv6 printgap
|  2> %output
|  3>     printlevel normal
|  4> end
|  5> %cpcm
|  6>     smd true
|  7>     smdsolvent "water"
|  8> end
|  9> * xyz 0 1
| 10> C -2.4084845019 0.008600451 0.0001719452
| 11> C -0.9733175473 0.5201651306 -0.0001834921
| 12> C 0.0296793123 -0.6390657343 -4.42327e-05
| 13> C 1.395690847 -0.1577773909 -0.0001639483
| 14> C 2.5152845854 0.2656802698 0.0001858896
| 15> H -2.5980159464 -0.5992680976 -0.8820064604
| 16> H -2.5977253426 -0.5985660739 0.8828854167
| 17> H -3.1078860991 0.8409531143 -2.57582e-05
| 18> H -0.8027590209 1.1417223555 -0.8820663505
| 19> H -0.8023943712 1.1422158298 0.8812838499
| 20> H -0.1256776031 -1.2613580358 -0.8857339691
| 21> H -0.1256517706 -1.2611592735 0.8857924861
| 22> H 3.5007582689 0.6240263671 0.0002740059
| 23> *
| 24>
| 25>                          ****END OF INPUT****

CARTESIAN COORDINATES (ANGSTROEM)
---------------------------------
  C     -2.408485    0.008600    0.000172
  C     -0.973318    0.520165   -0.000183
  C      0.029679   -0.639066   -0.000044
  C      1.395691   -0.157777   -0.000164
  C      2.515285    0.265680    0.000186
  H     -2.598016   -0.599268   -0.882006
  H     -2.597725   -0.598566    0.882885
  H     -3.107886    0.840953   -0.000026
  H     -0.802759    1.141722   -0.882066
  H     -0.802394    1.142216    0.881284
  H     -0.125678   -1.261358   -0.885734
  H     -0.125652   -1.261159    0.885792
  H      3.500758    0.624026    0.000274

 Total Charge           Charge          ....    0
 Multiplicity           Mult            ....    1
 Number of Electrons    NEL             ....   38
 Basis Dimension        Dim             ....  135

ORBITAL ENERGIES
----------------

  NO   OCC          E(Eh)            E(eV)
   0   2.0000     -10.047526      -273.4071
   1   2.0000     -10.037185      -273.1257
   2   2.0000     -10.028164      -272.8802
   3   2.0000     -10.019810      -272.6529
   4   2.0000     -10.011465      -272.4258
   5   2.0000      -0.776591       -21.1321
   6   2.0000      -0.715895       -19.4805
   7   2.0000      -0.656331       -17.8597
   8   2.0000      -0.561414       -15.2769
   9   2.0000      -0.496307       -13.5052
  10   2.0000      -0.438111       -11.9216
  11   2.0000      -0.433719       -11.8021
  12   2.0000      -0.385359       -10.4862
  13   2.0000      -0.366856        -9.9827
  14   2.0000      -0.330027        -8.9805
  15   2.0000      -0.314535        -8.5589
  16   2.0000      -0.301091        -8.1931
  17   2.0000      -0.251202        -6.8355
  18   2.0000      -0.250603        -6.8193
  19   0.0000       0.021066         0.5732
  20   0.0000       0.025304         0.6885
  21   0.0000       0.095103         2.5879
  22   0.0000       0.116365         3.1665
  23   0.0000       0.138695         3.7741

MULLIKEN ATOMIC CHARGES
-----------------------
   0 C :   -0.514566
   1 C :   -0.208797
   2 C :   -0.496068
   3 C :    0.023909
   4 C :   -0.168355
   5 H :    0.157465
   6 H :    0.157464
   7 H :    0.161618
   8 H :    0.154203
   9 H :    0.154211
  10 H :    0.187767
  11 H :    0.187757
  12 H :    0.203390
Sum of atomic charges:   -0.0000000

LOEWDIN ATOMIC CHARGES
----------------------
   0 C :   -0.428867
   1 C :   -0.296790
   2 C :   -0.280749
   3 C :   -0.093964
   4 C :   -0.251749
   5 H :    0.154486
   6 H :    0.154482
   7 H :    0.156510
   8 H :    0.159615
   9 H :    0.159616
  10 H :    0.185619
  11 H :    0.185624
  12 H :    0.196168

  Mayer bond orders larger than 0.100000
B(  0-C ,  1-C ) :   0.8900 B(  0-C ,  5-H ) :   0.9821 B(  0-C ,  6-H ) :   0.9821
B(  0-C ,  7-H ) :   0.9701 B(  1-C ,  2-C ) :   0.9213 B(  1-C ,  8-H ) :   0.9576
B(  1-C ,  9-H ) :   0.9576 B(  2-C ,  3-C ) :   1.0338 B(  2-C , 10-H ) :   0.9829
B(  2-C , 11-H ) :   0.9829 B(  3-C ,  4-C ) :   2.5363 B(  4-C , 12-H ) :   1.0565

Dispersion correction           -0.002667332
FINAL SINGLE POINT ENERGY      -195.211265354753

DIPOLE MOMENT
-------------

Method             : SCF
Type of density    : Electron Density
Multiplicity       :   1
Irrep              :   0
Energy             :  -195.2132610163684205 Eh
Relativity type    :
Basis              : AO
                                X                 Y                 Z
Electronic contribution:      5.726032014      -0.133423858      -0.000329408
Nuclear contribution   :     -6.247619675       0.026800005       0.000378290
                        -----------------------------------------
Total Dipole Moment    :     -0.521587660      -0.106623853       0.000048883
                        -----------------------------------------
Magnitude (a.u.)       :      0.532374244
Magnitude (Debye)      :      1.353187789

Rotational constants in cm-1:             0.777345             0.075869             0.071905
Rotational constants in MHz :         23304.204861          2274.502303          2155.667987

                             ****ORCA TERMINATED NORMALLY****
TOTAL RUN TIME: 0 days 0 hours 0 minutes 12 seconds 967 msec
