                         Program Version 6.0.0  -   RELEASE  -
|  1> ! wb97x-v def2-tzvp def2/J RIJCOSX DEFGRID2 scfconv7 GCP(DFT/TZ) printgap
|  2> %output
|  3>     printlevel normal
|  4> end
|  5> * xyz 0 1
|  6> C -3.12073676338272 -0.7758777411859675 0.1803964459357302
|  7> O -1.8850764843472856 -0.49488969773328695 -0.5254810492198704
|  8> C -1.1049743755912098 0.4630948220852279 0.011576934627270262
|  9> O -1.410344515266298 1.05718845233026 1.0327808533717941
| 10> C 0.12361523446701858 0.739918518790978 -0.8310355141447274
| 11> C 0.7872318878769923 -0.540774227724416 -1.36911455610061
| 12> C 1.4590862328285001 -1.3315468908832864 -0.24584621178489804
| 13> C 2.4907980744476252 -0.46949465610480046 0.484933333899585
| 14> C 1.8469008778133957 0.8042057871024363 1.0361070618120025
| 15> C 1.1434379231847642 1.5963587485433648 -0.06960070841755697
| 16> H -3.7452562785568495 0.11966681769268717 0.22052558989607404
| 17> H -2.9056849113648973 -1.1295528823409153 1.1913713724791557
| 18> H -3.611965359684108 -1.5566095277090062 -0.3988721172556923
| 19> H -0.26363376132592814 1.3145560138693746 -1.6855212031802709
| 20> H 0.060676038690580525 -1.1571420473679421 -1.9046407207581373
| 21> H 1.5486373428100806 -0.23423698426709835 -2.0971419262835664
| 22> H 0.6967289361733028 -1.6731403397679012 0.47005862410736576
| 23> H 1.9332213530710258 -2.2299746379582626 -0.6568639120279872
| 24> H 2.957459134411333 -1.0392087962073715 1.296695089019128
| 25> H 3.2896401636913497 -0.19681245551893067 -0.21896002605425902
| 26> H 1.1200331399832275 0.5309841383105082 1.81203106791222
| 27> H 2.602338103094837 1.4367324776996948 1.5160448734302503
| 28> H 0.6577348851063116 2.487101119421829 0.3405721824476107
| 29> H 1.890615081351163 1.9407762607687387 -0.7950567135432339
| 30> *
| 31>
| 32>                          ****END OF INPUT****

CARTESIAN COORDINATES (ANGSTROEM)
---------------------------------
  C     -3.120737   -0.775878    0.180396
  O     -1.885076   -0.494890   -0.525481
  C     -1.104974    0.463095    0.011577
  O     -1.410345    1.057188    1.032781
  C      0.123615    0.739919   -0.831036
  C      0.787232   -0.540774   -1.369115
  C      1.459086   -1.331547   -0.245846
  C      2.490798   -0.469495    0.484933
  C      1.846901    0.804206    1.036107
  C      1.143438    1.596359   -0.069601
  H     -3.745256    0.119667    0.220526
  H     -2.905685   -1.129553    1.191371
  H     -3.611965   -1.556610   -0.398872
  H     -0.263634    1.314556   -1.685521
  H      0.060676   -1.157142   -1.904641
  H      1.548637   -0.234237   -2.097142
  H      0.696729   -1.673140    0.470059
  H      1.933221   -2.229975   -0.656864
  H      2.957459   -1.039209    1.296695
  H      3.289640   -0.196812   -0.218960
  H      1.120033    0.530984    1.812031
  H      2.602338    1.436732    1.516045
  H      0.657735    2.487101    0.340572
  H      1.890615    1.940776   -0.795057

 Total Charge           Charge          ....    0
 Multiplicity           Mult            ....    1
 Number of Electrons    NEL             ....   78
 Basis Dimension        Dim             ....  394

ORBITAL ENERGIES
----------------

  NO   OCC          E(Eh)            E(eV)
   0   2.0000     -21.718097      -590.9795
   1   2.0000     -21.654039      -589.2364
   2   2.0000     -12.173138      -331.2479
   3   2.0000     -12.102996      -329.3393
   4   2.0000     -12.063040      -328.2520
   5   2.0000     -12.044974      -327.7604
   6   2.0000     -12.040374      -327.6352
   7   2.0000     -12.039891      -327.6221
   8   2.0000     -12.037123      -327.5468
   9   2.0000     -12.033963      -327.4608
  10   2.0000      -1.757153       -47.8146
  11   2.0000      -1.689387       -45.9705
  12   2.0000      -1.351671       -36.7808
  13   2.0000      -1.292607       -35.1736
  14   2.0000      -1.251731       -34.0613
  15   2.0000      -1.246418       -33.9168
  16   2.0000      -1.142189       -31.0805
  17   2.0000      -1.104702       -30.0605
  18   2.0000      -1.098044       -29.8793
  19   2.0000      -1.059172       -28.8215
  20   2.0000      -1.038832       -28.2681
  21   2.0000      -0.996279       -27.1101
  22   2.0000      -0.985734       -26.8232
  23   2.0000      -0.931963       -25.3600
  24   2.0000      -0.921520       -25.0758
  25   2.0000      -0.894408       -24.3381
  26   2.0000      -0.874556       -23.7979
  27   2.0000      -0.874007       -23.7829
  28   2.0000      -0.861598       -23.4453
  29   2.0000      -0.843946       -22.9649
  30   2.0000      -0.841553       -22.8998
  31   2.0000      -0.828410       -22.5422
  32   2.0000      -0.822822       -22.3901
  33   2.0000      -0.820396       -22.3241
  34   2.0000      -0.800258       -21.7761
  35   2.0000      -0.775403       -21.0998
  36   2.0000      -0.753769       -20.5111
  37   2.0000      -0.751381       -20.4461
  38   2.0000      -0.741087       -20.1660
  39   0.0000      -0.303717        -8.2646
  40   0.0000      -0.183141        -4.9835
  41   0.0000      -0.103049        -2.8041
  42   0.0000      -0.051522        -1.4020
  43   0.0000      -0.034052        -0.9266

MULLIKEN ATOMIC CHARGES
-----------------------
   0 C :   -0.192243
   1 O :   -0.239407
   2 C :    0.220821
   3 O :   -0.351624
   4 C :    0.059163
   5 C :   -0.209003
   6 C :   -0.200708
   7 C :   -0.182599
   8 C :   -0.219358
   9 C :   -0.195831
  10 H :    0.130561
  11 H :    0.128770
  12 H :    0.127854
  13 H :    0.095535
  14 H :    0.117085
  15 H :    0.097751
  16 H :    0.096910
  17 H :    0.100979
  18 H :    0.099500
  19 H :    0.084982
  20 H :    0.119284
  21 H :    0.098749
  22 H :    0.114820
  23 H :    0.098008
Sum of atomic charges:    0.0000000

LOEWDIN ATOMIC CHARGES
----------------------
   0 C :   -0.288212
   1 O :    0.229237
   2 C :   -0.438898
   3 O :    0.088198
   4 C :   -0.217158
   5 C :   -0.229353
   6 C :   -0.255400
   7 C :   -0.260489
   8 C :   -0.254422
   9 C :   -0.225160
  10 H :    0.111532
  11 H :    0.110815
  12 H :    0.109256
  13 H :    0.167504
  14 H :    0.136335
  15 H :    0.137515
  16 H :    0.135486
  17 H :    0.131656
  18 H :    0.130641
  19 H :    0.132321
  20 H :    0.139433
  21 H :    0.131619
  22 H :    0.141034
  23 H :    0.136511

  Mayer bond orders larger than 0.100000
B(  0-C ,  1-O ) :   0.9108 B(  0-C , 10-H ) :   0.9790 B(  0-C , 11-H ) :   0.9774
B(  0-C , 12-H ) :   0.9731 B(  1-O ,  2-C ) :   1.1992 B(  2-C ,  3-O ) :   2.0428
B(  2-C ,  4-C ) :   0.9776 B(  4-C ,  5-C ) :   0.9648 B(  4-C ,  9-C ) :   0.9883
B(  4-C , 13-H ) :   0.9324 B(  5-C ,  6-C ) :   0.9909 B(  5-C , 14-H ) :   0.9652
B(  5-C , 15-H ) :   0.9730 B(  6-C ,  7-C ) :   0.9899 B(  6-C , 16-H ) :   0.9747
B(  6-C , 17-H ) :   0.9767 B(  7-C ,  8-C ) :   0.9852 B(  7-C , 18-H ) :   0.9752
B(  7-C , 19-H ) :   0.9735 B(  8-C ,  9-C ) :   0.9862 B(  8-C , 20-H ) :   0.9765
B(  8-C , 21-H ) :   0.9759 B(  9-C , 22-H ) :   0.9597 B(  9-C , 23-H ) :   0.9777

FINAL SINGLE POINT ENERGY      -463.785475914246

DIPOLE MOMENT
-------------

Method             : SCF
Type of density    : Electron Density
Multiplicity       :   1
Irrep              :   0
Energy             :  -463.8023240257464295 Eh
Relativity type    :
Basis              : AO
                                X                 Y                 Z
Electronic contribution:     -6.092359830       2.062445400       0.079223660
Nuclear contribution   :      6.064976116      -2.536483444      -0.620073473
                        -----------------------------------------
Total Dipole Moment    :     -0.027383714      -0.474038044      -0.540849813
                        -----------------------------------------
Magnitude (a.u.)       :      0.719708590
Magnitude (Debye)      :      1.829353855

Rotational constants in cm-1:             0.076602             0.031673             0.027689
Rotational constants in MHz :          2296.455772           949.525457           830.108339

                             ****ORCA TERMINATED NORMALLY****
TOTAL RUN TIME: 0 days 0 hours 4 minutes 33 seconds 921 msec
