                         Program Version 6.0.0  -   RELEASE  -
|  1> ! wb97x-v def2-tzvp def2/J RIJCOSX DEFGRID2 scfconv7 GCP(DFT/TZ) printgap
|  2> %output
|  3>     printlevel normal
|  4> end
|  5> %cpcm
|  6>     smd true
|  7>     smdsolvent "water"
|  8> end
|  9> * xyz 0 1
| 10> C -3.12073676338272 -0.7758777411859675 0.1803964459357302
| 11> O -1.8850764843472856 -0.49488969773328695 -0.5254810492198704
| 12> C -1.1049743755912098 0.4630948220852279 0.011576934627270262
| 13> O -1.410344515266298 1.05718845233026 1.0327808533717941
| 14> C 0.12361523446701858 0.739918518790978 -0.8310355141447274
| 15> C 0.7872318878769923 -0.540774227724416 -1.36911455610061
| 16> C 1.4590862328285001 -1.3315468908832864 -0.24584621178489804
| 17> C 2.4907980744476252 -0.46949465610480046 0.484933333899585
| 18> C 1.8469008778133957 0.8042057871024363 1.0361070618120025
| 19> C 1.1434379231847642 1.5963587485433648 -0.06960070841755697
| 20> H -3.7452562785568495 0.11966681769268717 0.22052558989607404
| 21> H -2.9056849113648973 -1.1295528823409153 1.1913713724791557
| 22> H -3.611965359684108 -1.5566095277090062 -0.3988721172556923
| 23> H -0.26363376132592814 1.3145560138693746 -1.6855212031802709
| 24> H 0.060676038690580525 -1.1571420473679421 -1.9046407207581373
| 25> H 1.5486373428100806 -0.23423698426709835 -2.0971419262835664
| 26> H 0.6967289361733028 -1.6731403397679012 0.47005862410736576
| 27> H 1.9332213530710258 -2.2299746379582626 -0.6568639120279872
| 28> H 2.957459134411333 -1.0392087962073715 1.296695089019128
| 29> H 3.2896401636913497 -0.19681245551893067 -0.21896002605425902
| 30> H 1.1200331399832275 0.5309841383105082 1.81203106791222
| 31> H 2.602338103094837 1.4367324776996948 1.5160448734302503
| 32> H 0.6577348851063116 2.487101119421829 0.3405721824476107
| 33> H 1.890615081351163 1.9407762607687387 -0.7950567135432339
| 34> *
| 35>
| 36>                          ****END OF INPUT****

CARTESIAN COORDINATES (ANGSTROEM)
---------------------------------
  C     -3.120737   -0.775878    0.180396
  O     -1.885076   -0.494890   -0.525481
  C     -1.104974    0.463095    0.011577
  O     -1.410345    1.057188    1.032781
  C      0.123615    0.739919   -0.831036
  C      0.787232   -0.540774   -1.369115
  C      1.459086   -1.331547   -0.245846
  C      2.490798   -0.469495    0.484933
  C      1.846901    0.804206    1.036107
  C      1.143438    1.596359   -0.069601
  H     -3.745256    0.119667    0.220526
  H     -2.905685   -1.129553    1.191371
  H     -3.611965   -1.556610   -0.398872
  H     -0.263634    1.314556   -1.685521
  H      0.060676   -1.157142   -1.904641
  H      1.548637   -0.234237   -2.097142
  H      0.696729   -1.673140    0.470059
  H      1.933221   -2.229975   -0.656864
  H      2.957459   -1.039209    1.296695
  H      3.289640   -0.196812   -0.218960
  H      1.120033    0.530984    1.812031
  H      2.602338    1.436732    1.516045
  H      0.657735    2.487101    0.340572
  H      1.890615    1.940776   -0.795057

 Total Charge           Charge          ....    0
 Multiplicity           Mult            ....    1
 Number of Electrons    NEL             ....   78
 Basis Dimension        Dim             ....  394

ORBITAL ENERGIES
----------------

  NO   OCC          E(Eh)            E(eV)
   0   2.0000     -21.721672      -591.0767
   1   2.0000     -21.666966      -589.5881
   2   2.0000     -12.182587      -331.5051
   3   2.0000     -12.091895      -329.0372
   4   2.0000     -12.057384      -328.0981
   5   2.0000     -12.036774      -327.5373
   6   2.0000     -12.034750      -327.4822
   7   2.0000     -12.031282      -327.3878
   8   2.0000     -12.029907      -327.3504
   9   2.0000     -12.028629      -327.3156
  10   2.0000      -1.763546       -47.9885
  11   2.0000      -1.700496       -46.2728
  12   2.0000      -1.346468       -36.6393
  13   2.0000      -1.289323       -35.0843
  14   2.0000      -1.245729       -33.8980
  15   2.0000      -1.240499       -33.7557
  16   2.0000      -1.142557       -31.0905
  17   2.0000      -1.104786       -30.0628
  18   2.0000      -1.092217       -29.7207
  19   2.0000      -1.068719       -29.0813
  20   2.0000      -1.035623       -28.1807
  21   2.0000      -0.998393       -27.1677
  22   2.0000      -0.983236       -26.7552
  23   2.0000      -0.935915       -25.4675
  24   2.0000      -0.921113       -25.0648
  25   2.0000      -0.902280       -24.5523
  26   2.0000      -0.873242       -23.7621
  27   2.0000      -0.867842       -23.6152
  28   2.0000      -0.862015       -23.4566
  29   2.0000      -0.837064       -22.7777
  30   2.0000      -0.832401       -22.6508
  31   2.0000      -0.822498       -22.3813
  32   2.0000      -0.814511       -22.1640
  33   2.0000      -0.814105       -22.1529
  34   2.0000      -0.795082       -21.6353
  35   2.0000      -0.768368       -20.9084
  36   2.0000      -0.746931       -20.3250
  37   2.0000      -0.744996       -20.2724
  38   2.0000      -0.734241       -19.9797
  39   0.0000      -0.307941        -8.3795
  40   0.0000      -0.176961        -4.8154
  41   0.0000      -0.105027        -2.8579
  42   0.0000      -0.049162        -1.3378
  43   0.0000      -0.024931        -0.6784

MULLIKEN ATOMIC CHARGES
-----------------------
   0 C :   -0.233711
   1 O :   -0.263352
   2 C :    0.312618
   3 O :   -0.469840
   4 C :    0.064949
   5 C :   -0.235586
   6 C :   -0.218783
   7 C :   -0.204068
   8 C :   -0.227495
   9 C :   -0.240648
  10 H :    0.149538
  11 H :    0.149349
  12 H :    0.156287
  13 H :    0.129391
  14 H :    0.121756
  15 H :    0.116401
  16 H :    0.107446
  17 H :    0.116129
  18 H :    0.111607
  19 H :    0.098800
  20 H :    0.108210
  21 H :    0.114578
  22 H :    0.117751
  23 H :    0.118673
Sum of atomic charges:    0.0000000

LOEWDIN ATOMIC CHARGES
----------------------
   0 C :   -0.285350
   1 O :    0.226132
   2 C :   -0.419338
   3 O :    0.028076
   4 C :   -0.212888
   5 C :   -0.228679
   6 C :   -0.257389
   7 C :   -0.261473
   8 C :   -0.259043
   9 C :   -0.227894
  10 H :    0.115859
  11 H :    0.115512
  12 H :    0.118895
  13 H :    0.178261
  14 H :    0.135750
  15 H :    0.143559
  16 H :    0.137601
  17 H :    0.134364
  18 H :    0.132422
  19 H :    0.135982
  20 H :    0.135014
  21 H :    0.133970
  22 H :    0.137290
  23 H :    0.143367

  Mayer bond orders larger than 0.100000
B(  0-C ,  1-O ) :   0.8858 B(  0-C , 10-H ) :   0.9732 B(  0-C , 11-H ) :   0.9725
B(  0-C , 12-H ) :   0.9680 B(  1-O ,  2-C ) :   1.2169 B(  2-C ,  3-O ) :   1.9130
B(  2-C ,  4-C ) :   0.9908 B(  4-C ,  5-C ) :   0.9617 B(  4-C ,  9-C ) :   0.9744
B(  4-C , 13-H ) :   0.9215 B(  5-C ,  6-C ) :   0.9910 B(  5-C , 14-H ) :   0.9675
B(  5-C , 15-H ) :   0.9687 B(  6-C ,  7-C ) :   0.9916 B(  6-C , 16-H ) :   0.9724
B(  6-C , 17-H ) :   0.9739 B(  7-C ,  8-C ) :   0.9875 B(  7-C , 18-H ) :   0.9726
B(  7-C , 19-H ) :   0.9712 B(  8-C ,  9-C ) :   0.9819 B(  8-C , 20-H ) :   0.9775
B(  8-C , 21-H ) :   0.9738 B(  9-C , 22-H ) :   0.9708 B(  9-C , 23-H ) :   0.9731

FINAL SINGLE POINT ENERGY      -463.790808775274

DIPOLE MOMENT
-------------

Method             : SCF
Type of density    : Electron Density
Multiplicity       :   1
Irrep              :   0
Energy             :  -463.8076568867743958 Eh
Relativity type    :
Basis              : AO
                                X                 Y                 Z
Electronic contribution:     -6.016984619       1.875741985      -0.255611573
Nuclear contribution   :      6.064976116      -2.536483444      -0.620073473
                        -----------------------------------------
Total Dipole Moment    :      0.047991496      -0.660741459      -0.875685046
                        -----------------------------------------
Magnitude (a.u.)       :      1.098046793
Magnitude (Debye)      :      2.791013142

Rotational constants in cm-1:             0.076602             0.031673             0.027689
Rotational constants in MHz :          2296.455772           949.525457           830.108339

                             ****ORCA TERMINATED NORMALLY****
TOTAL RUN TIME: 0 days 0 hours 4 minutes 41 seconds 98 msec
