                         Program Version 6.0.0  -   RELEASE  -
|  1> ! wb97x-v def2-tzvp def2/J RIJCOSX DEFGRID2 scfconv7 GCP(DFT/TZ) printgap
|  2> %output
|  3>     printlevel normal
|  4> end
|  5> * xyz 0 1
|  6> C -2.9327079716596307 -2.79879196712626e-06 -0.053065459699524
|  7> C -1.4577526257958198 -3.339181314684544e-05 0.3371029206050929
|  8> C -0.7433178405580694 -1.2531200658638333 -0.1796257453212763
|  9> C 0.7433396223209213 -1.2531014320367535 0.1795611196226606
| 10> C 1.4577067067199754 3.9713770794070976e-05 -0.33712064237398776
| 11> C 0.7433402529129918 1.2531302377743292 0.1796845994545243
| 12> C -0.7433430324659117 1.2531565615602787 -0.17940953813182386
| 13> C 2.9327342940098484 8.378386352765344e-06 0.05276463271548033
| 14> H -3.4475584629637113 0.8859320412662313 0.3352632543722901
| 15> H -3.0419406518480576 0.00018562270576378718 -1.1445276747748794
| 16> H -3.4475137493933365 -0.8860986455271019 0.3349536301304448
| 17> H -1.3852902777761804 -0.00013506989927345223 1.4358097165859343
| 18> H -1.2303344631954634 -2.1512597159664937 0.22106455701385322
| 19> H -0.8537481595538031 -1.2926288900716332 -1.2737073043524607
| 20> H 0.853772179249953 -1.2926204071734162 1.2736437233998181
| 21> H 1.230386925233594 -2.1512207319162933 -0.22113983708909457
| 22> H 1.3850458331250286 9.459086099404677e-05 -1.4358150396497393
| 23> H 0.8538702178392618 1.2926322750310215 1.27375508707335
| 24> H 1.2303278899274155 2.151266315870042 -0.22104531388408954
| 25> H -1.2303539401715629 2.151212728266179 0.22147298808521973
| 26> H -0.85383332820497 1.2928722853951582 -1.2734762846875374
| 27> H 3.0421975295846253 -0.0006348649318055763 1.1442027434096946
| 28> H 3.4473525199788067 0.8863313740101902 -0.3349868939757308
| 29> H 3.4476087754918177 -0.8856962989275726 -0.3360569656052321
| 30> *
| 31>
| 32>                          ****END OF INPUT****

CARTESIAN COORDINATES (ANGSTROEM)
---------------------------------
  C     -2.932708   -0.000003   -0.053065
  C     -1.457753   -0.000033    0.337103
  C     -0.743318   -1.253120   -0.179626
  C      0.743340   -1.253101    0.179561
  C      1.457707    0.000040   -0.337121
  C      0.743340    1.253130    0.179685
  C     -0.743343    1.253157   -0.179410
  C      2.932734    0.000008    0.052765
  H     -3.447558    0.885932    0.335263
  H     -3.041941    0.000186   -1.144528
  H     -3.447514   -0.886099    0.334954
  H     -1.385290   -0.000135    1.435810
  H     -1.230334   -2.151260    0.221065
  H     -0.853748   -1.292629   -1.273707
  H      0.853772   -1.292620    1.273644
  H      1.230387   -2.151221   -0.221140
  H      1.385046    0.000095   -1.435815
  H      0.853870    1.292632    1.273755
  H      1.230328    2.151266   -0.221045
  H     -1.230354    2.151213    0.221473
  H     -0.853833    1.292872   -1.273476
  H      3.042198   -0.000635    1.144203
  H      3.447353    0.886331   -0.334987
  H      3.447609   -0.885696   -0.336057

 Total Charge           Charge          ....    0
 Multiplicity           Mult            ....    1
 Number of Electrons    NEL             ....   64
 Basis Dimension        Dim             ....  344

ORBITAL ENERGIES
----------------

  NO   OCC          E(Eh)            E(eV)
   0   2.0000     -12.041708      -327.6715
   1   2.0000     -12.041515      -327.6663
   2   2.0000     -12.034634      -327.4790
   3   2.0000     -12.034201      -327.4672
   4   2.0000     -12.033338      -327.4438
   5   2.0000     -12.033198      -327.4400
   6   2.0000     -12.029424      -327.3373
   7   2.0000     -12.029324      -327.3345
   8   2.0000      -1.344741       -36.5923
   9   2.0000      -1.285507       -34.9804
  10   2.0000      -1.243228       -33.8300
  11   2.0000      -1.199899       -32.6509
  12   2.0000      -1.137183       -30.9443
  13   2.0000      -1.094990       -29.7962
  14   2.0000      -1.048951       -28.5434
  15   2.0000      -1.000805       -27.2333
  16   2.0000      -0.901858       -24.5408
  17   2.0000      -0.883763       -24.0484
  18   2.0000      -0.870699       -23.6929
  19   2.0000      -0.869825       -23.6691
  20   2.0000      -0.868621       -23.6364
  21   2.0000      -0.831393       -22.6233
  22   2.0000      -0.812511       -22.1095
  23   2.0000      -0.811615       -22.0852
  24   2.0000      -0.807257       -21.9666
  25   2.0000      -0.793767       -21.5995
  26   2.0000      -0.782402       -21.2902
  27   2.0000      -0.766870       -20.8676
  28   2.0000      -0.758772       -20.6472
  29   2.0000      -0.750128       -20.4120
  30   2.0000      -0.733384       -19.9564
  31   2.0000      -0.723555       -19.6889
  32   0.0000      -0.041126        -1.1191
  33   0.0000      -0.039958        -1.0873
  34   0.0000      -0.022724        -0.6184
  35   0.0000      -0.020169        -0.5488
  36   0.0000      -0.018027        -0.4905

MULLIKEN ATOMIC CHARGES
-----------------------
   0 C :   -0.338091
   1 C :   -0.031996
   2 C :   -0.190876
   3 C :   -0.190864
   4 C :   -0.031860
   5 C :   -0.190848
   6 C :   -0.190804
   7 C :   -0.338107
   8 H :    0.110245
   9 H :    0.102747
  10 H :    0.110240
  11 H :    0.062043
  12 H :    0.097204
  13 H :    0.086035
  14 H :    0.086032
  15 H :    0.097203
  16 H :    0.062022
  17 H :    0.086039
  18 H :    0.097188
  19 H :    0.097190
  20 H :    0.086027
  21 H :    0.102741
  22 H :    0.110244
  23 H :    0.110246
Sum of atomic charges:   -0.0000000

LOEWDIN ATOMIC CHARGES
----------------------
   0 C :   -0.282044
   1 C :   -0.284835
   2 C :   -0.235344
   3 C :   -0.235344
   4 C :   -0.284838
   5 C :   -0.235344
   6 C :   -0.235343
   7 C :   -0.282044
   8 H :    0.117465
   9 H :    0.118450
  10 H :    0.117464
  11 H :    0.147227
  12 H :    0.132778
  13 H :    0.135703
  14 H :    0.135703
  15 H :    0.132778
  16 H :    0.147228
  17 H :    0.135703
  18 H :    0.132778
  19 H :    0.132779
  20 H :    0.135703
  21 H :    0.118449
  22 H :    0.117467
  23 H :    0.117464

  Mayer bond orders larger than 0.100000
B(  0-C ,  1-C ) :   0.9745 B(  0-C ,  8-H ) :   0.9870 B(  0-C ,  9-H ) :   0.9743
B(  0-C , 10-H ) :   0.9870 B(  1-C ,  2-C ) :   0.9858 B(  1-C ,  6-C ) :   0.9858
B(  1-C , 11-H ) :   0.9693 B(  2-C ,  3-C ) :   0.9911 B(  2-C , 12-H ) :   0.9743
B(  2-C , 13-H ) :   0.9677 B(  3-C ,  4-C ) :   0.9858 B(  3-C , 14-H ) :   0.9677
B(  3-C , 15-H ) :   0.9743 B(  4-C ,  5-C ) :   0.9859 B(  4-C ,  7-C ) :   0.9746
B(  4-C , 16-H ) :   0.9692 B(  5-C ,  6-C ) :   0.9911 B(  5-C , 17-H ) :   0.9677
B(  5-C , 18-H ) :   0.9743 B(  6-C , 19-H ) :   0.9743 B(  6-C , 20-H ) :   0.9676
B(  7-C , 21-H ) :   0.9743 B(  7-C , 22-H ) :   0.9870 B(  7-C , 23-H ) :   0.9870

FINAL SINGLE POINT ENERGY      -314.522402745488

DIPOLE MOMENT
-------------

Method             : SCF
Type of density    : Electron Density
Multiplicity       :   1
Irrep              :   0
Energy             :  -314.5395689476880534 Eh
Relativity type    :
Basis              : AO
                                X                 Y                 Z
Electronic contribution:      0.000003406      -0.000063849       0.000305470
Nuclear contribution   :     -0.000008012       0.000062824      -0.000299957
                        -----------------------------------------
Total Dipole Moment    :     -0.000004606      -0.000001026       0.000005513
                        -----------------------------------------
Magnitude (a.u.)       :      0.000007257
Magnitude (Debye)      :      0.000018445

Rotational constants in cm-1:             0.137792             0.044127             0.036044
Rotational constants in MHz :          4130.911599          1322.895929          1080.567054

                             ****ORCA TERMINATED NORMALLY****
TOTAL RUN TIME: 0 days 0 hours 3 minutes 22 seconds 666 msec
