                         Program Version 6.0.0  -   RELEASE  -
|  1> ! wb97x-v def2-tzvp def2/J RIJCOSX DEFGRID2 scfconv7 GCP(DFT/TZ) printgap
|  2> %output
|  3>     printlevel normal
|  4> end
|  5> %cpcm
|  6>     smd true
|  7>     smdsolvent "water"
|  8> end
|  9> * xyz 0 1
| 10> C -2.9327079716596307 -2.79879196712626e-06 -0.053065459699524
| 11> C -1.4577526257958198 -3.339181314684544e-05 0.3371029206050929
| 12> C -0.7433178405580694 -1.2531200658638333 -0.1796257453212763
| 13> C 0.7433396223209213 -1.2531014320367535 0.1795611196226606
| 14> C 1.4577067067199754 3.9713770794070976e-05 -0.33712064237398776
| 15> C 0.7433402529129918 1.2531302377743292 0.1796845994545243
| 16> C -0.7433430324659117 1.2531565615602787 -0.17940953813182386
| 17> C 2.9327342940098484 8.378386352765344e-06 0.05276463271548033
| 18> H -3.4475584629637113 0.8859320412662313 0.3352632543722901
| 19> H -3.0419406518480576 0.00018562270576378718 -1.1445276747748794
| 20> H -3.4475137493933365 -0.8860986455271019 0.3349536301304448
| 21> H -1.3852902777761804 -0.00013506989927345223 1.4358097165859343
| 22> H -1.2303344631954634 -2.1512597159664937 0.22106455701385322
| 23> H -0.8537481595538031 -1.2926288900716332 -1.2737073043524607
| 24> H 0.853772179249953 -1.2926204071734162 1.2736437233998181
| 25> H 1.230386925233594 -2.1512207319162933 -0.22113983708909457
| 26> H 1.3850458331250286 9.459086099404677e-05 -1.4358150396497393
| 27> H 0.8538702178392618 1.2926322750310215 1.27375508707335
| 28> H 1.2303278899274155 2.151266315870042 -0.22104531388408954
| 29> H -1.2303539401715629 2.151212728266179 0.22147298808521973
| 30> H -0.85383332820497 1.2928722853951582 -1.2734762846875374
| 31> H 3.0421975295846253 -0.0006348649318055763 1.1442027434096946
| 32> H 3.4473525199788067 0.8863313740101902 -0.3349868939757308
| 33> H 3.4476087754918177 -0.8856962989275726 -0.3360569656052321
| 34> *
| 35>
| 36>                          ****END OF INPUT****

CARTESIAN COORDINATES (ANGSTROEM)
---------------------------------
  C     -2.932708   -0.000003   -0.053065
  C     -1.457753   -0.000033    0.337103
  C     -0.743318   -1.253120   -0.179626
  C      0.743340   -1.253101    0.179561
  C      1.457707    0.000040   -0.337121
  C      0.743340    1.253130    0.179685
  C     -0.743343    1.253157   -0.179410
  C      2.932734    0.000008    0.052765
  H     -3.447558    0.885932    0.335263
  H     -3.041941    0.000186   -1.144528
  H     -3.447514   -0.886099    0.334954
  H     -1.385290   -0.000135    1.435810
  H     -1.230334   -2.151260    0.221065
  H     -0.853748   -1.292629   -1.273707
  H      0.853772   -1.292620    1.273644
  H      1.230387   -2.151221   -0.221140
  H      1.385046    0.000095   -1.435815
  H      0.853870    1.292632    1.273755
  H      1.230328    2.151266   -0.221045
  H     -1.230354    2.151213    0.221473
  H     -0.853833    1.292872   -1.273476
  H      3.042198   -0.000635    1.144203
  H      3.447353    0.886331   -0.334987
  H      3.447609   -0.885696   -0.336057

 Total Charge           Charge          ....    0
 Multiplicity           Mult            ....    1
 Number of Electrons    NEL             ....   64
 Basis Dimension        Dim             ....  344

ORBITAL ENERGIES
----------------

  NO   OCC          E(Eh)            E(eV)
   0   2.0000     -12.033467      -327.4473
   1   2.0000     -12.033275      -327.4421
   2   2.0000     -12.026094      -327.2467
   3   2.0000     -12.025663      -327.2349
   4   2.0000     -12.024798      -327.2114
   5   2.0000     -12.024673      -327.2080
   6   2.0000     -12.021688      -327.1268
   7   2.0000     -12.021578      -327.1238
   8   2.0000      -1.336479       -36.3675
   9   2.0000      -1.277551       -34.7639
  10   2.0000      -1.235063       -33.6078
  11   2.0000      -1.192509       -32.4498
  12   2.0000      -1.129822       -30.7440
  13   2.0000      -1.086859       -29.5749
  14   2.0000      -1.041196       -28.3324
  15   2.0000      -0.992557       -27.0089
  16   2.0000      -0.893795       -24.3214
  17   2.0000      -0.875742       -23.8301
  18   2.0000      -0.862694       -23.4751
  19   2.0000      -0.861522       -23.4432
  20   2.0000      -0.860795       -23.4234
  21   2.0000      -0.823747       -22.4153
  22   2.0000      -0.804367       -21.8879
  23   2.0000      -0.804248       -21.8847
  24   2.0000      -0.799447       -21.7541
  25   2.0000      -0.786208       -21.3938
  26   2.0000      -0.774744       -21.0819
  27   2.0000      -0.758520       -20.6404
  28   2.0000      -0.750896       -20.4329
  29   2.0000      -0.741961       -20.1898
  30   2.0000      -0.725304       -19.7365
  31   2.0000      -0.715005       -19.4563
  32   0.0000      -0.032248        -0.8775
  33   0.0000      -0.031959        -0.8696
  34   0.0000      -0.014853        -0.4042
  35   0.0000      -0.012438        -0.3384
  36   0.0000      -0.008454        -0.2300

MULLIKEN ATOMIC CHARGES
-----------------------
   0 C :   -0.400312
   1 C :   -0.015732
   2 C :   -0.219281
   3 C :   -0.219271
   4 C :   -0.015596
   5 C :   -0.219252
   6 C :   -0.219208
   7 C :   -0.400330
   8 H :    0.126072
   9 H :    0.118260
  10 H :    0.126067
  11 H :    0.071247
  12 H :    0.109418
  13 H :    0.097018
  14 H :    0.097019
  15 H :    0.109416
  16 H :    0.071227
  17 H :    0.097021
  18 H :    0.109403
  19 H :    0.109403
  20 H :    0.097011
  21 H :    0.118253
  22 H :    0.126072
  23 H :    0.126073
Sum of atomic charges:   -0.0000000

LOEWDIN ATOMIC CHARGES
----------------------
   0 C :   -0.290066
   1 C :   -0.284570
   2 C :   -0.238448
   3 C :   -0.238448
   4 C :   -0.284573
   5 C :   -0.238448
   6 C :   -0.238447
   7 C :   -0.290066
   8 H :    0.119338
   9 H :    0.120406
  10 H :    0.119338
  11 H :    0.149262
  12 H :    0.134127
  13 H :    0.137467
  14 H :    0.137468
  15 H :    0.134127
  16 H :    0.149263
  17 H :    0.137466
  18 H :    0.134128
  19 H :    0.134128
  20 H :    0.137467
  21 H :    0.120405
  22 H :    0.119340
  23 H :    0.119338

  Mayer bond orders larger than 0.100000
B(  0-C ,  1-C ) :   0.9574 B(  0-C ,  8-H ) :   0.9850 B(  0-C ,  9-H ) :   0.9746
B(  0-C , 10-H ) :   0.9850 B(  1-C ,  2-C ) :   0.9840 B(  1-C ,  6-C ) :   0.9840
B(  1-C , 11-H ) :   0.9690 B(  2-C ,  3-C ) :   0.9924 B(  2-C , 12-H ) :   0.9730
B(  2-C , 13-H ) :   0.9673 B(  3-C ,  4-C ) :   0.9841 B(  3-C , 14-H ) :   0.9673
B(  3-C , 15-H ) :   0.9730 B(  4-C ,  5-C ) :   0.9841 B(  4-C ,  7-C ) :   0.9574
B(  4-C , 16-H ) :   0.9688 B(  5-C ,  6-C ) :   0.9923 B(  5-C , 17-H ) :   0.9673
B(  5-C , 18-H ) :   0.9730 B(  6-C , 19-H ) :   0.9730 B(  6-C , 20-H ) :   0.9673
B(  7-C , 21-H ) :   0.9746 B(  7-C , 22-H ) :   0.9850 B(  7-C , 23-H ) :   0.9850

FINAL SINGLE POINT ENERGY      -314.519322221659

DIPOLE MOMENT
-------------

Method             : SCF
Type of density    : Electron Density
Multiplicity       :   1
Irrep              :   0
Energy             :  -314.5364884238587706 Eh
Relativity type    :
Basis              : AO
                                X                 Y                 Z
Electronic contribution:      0.000001513      -0.000059291       0.000300703
Nuclear contribution   :     -0.000008012       0.000062824      -0.000299957
                        -----------------------------------------
Total Dipole Moment    :     -0.000006500       0.000003533       0.000000746
                        -----------------------------------------
Magnitude (a.u.)       :      0.000007435
Magnitude (Debye)      :      0.000018898

Rotational constants in cm-1:             0.137792             0.044127             0.036044
Rotational constants in MHz :          4130.911599          1322.895929          1080.567054

                             ****ORCA TERMINATED NORMALLY****
TOTAL RUN TIME: 0 days 0 hours 3 minutes 32 seconds 186 msec
