                         Program Version 6.0.0  -   RELEASE  -
|  1> ! pbe def2-sv(p) def2/J RI DEFGRID1 loosescf d4 GCP(DFT/SV(P)) printgap
|  2> %output
|  3>     printlevel normal
|  4> end
|  5> * xyz 0 1
|  6> C -2.1131212082 -0.5447111584 -0.707677066
|  7> C -1.3560477944 -0.3260952739 0.6059634594
|  8> C -0.0078654095 0.2739838185 0.3072380021
|  9> O 0.2561762359 1.4575282202 0.351935266
| 10> O 0.8719089714 -0.6529627626 -0.0533940499
| 11> C 2.1844405804 -0.2174433834 -0.415776514
| 12> H -2.2398696462 0.3996175927 -1.231818822
| 13> H -1.5650948643 -1.2309997043 -1.3479977436
| 14> H -3.0930595717 -0.9633081251 -0.4997171993
| 15> H -1.2123179099 -1.2799356772 1.111416213
| 16> H -1.9061870196 0.3615479814 1.2470425556
| 17> H 2.1244057858 0.5433673359 -1.1948534569
| 18> H 2.6999487881 -1.1037493556 -0.7716739632
| 19> H 2.6883676652 0.2051896233 0.4541386614
| 20> *
| 21>
| 22>                          ****END OF INPUT****

CARTESIAN COORDINATES (ANGSTROEM)
---------------------------------
  C     -2.113121   -0.544711   -0.707677
  C     -1.356048   -0.326095    0.605963
  C     -0.007865    0.273984    0.307238
  O      0.256176    1.457528    0.351935
  O      0.871909   -0.652963   -0.053394
  C      2.184441   -0.217443   -0.415777
  H     -2.239870    0.399618   -1.231819
  H     -1.565095   -1.231000   -1.347998
  H     -3.093060   -0.963308   -0.499717
  H     -1.212318   -1.279936    1.111416
  H     -1.906187    0.361548    1.247043
  H      2.124406    0.543367   -1.194853
  H      2.699949   -1.103749   -0.771674
  H      2.688368    0.205190    0.454139

 Total Charge           Charge          ....    0
 Multiplicity           Mult            ....    1
 Number of Electrons    NEL             ....   48
 Basis Dimension        Dim             ....  100

ORBITAL ENERGIES
----------------

  NO   OCC          E(Eh)            E(eV)
   0   2.0000     -18.799369      -511.5568
   1   2.0000     -18.730344      -509.6786
   2   2.0000     -10.003395      -272.2062
   3   2.0000      -9.941860      -270.5318
   4   2.0000      -9.898964      -269.3645
   5   2.0000      -9.888459      -269.0787
   6   2.0000      -1.005204       -27.3530
   7   2.0000      -0.907176       -24.6855
   8   2.0000      -0.716884       -19.5074
   9   2.0000      -0.656462       -17.8632
  10   2.0000      -0.575435       -15.6584
  11   2.0000      -0.507173       -13.8009
  12   2.0000      -0.449615       -12.2347
  13   2.0000      -0.432059       -11.7569
  14   2.0000      -0.422797       -11.5049
  15   2.0000      -0.389494       -10.5987
  16   2.0000      -0.380744       -10.3606
  17   2.0000      -0.363320        -9.8865
  18   2.0000      -0.336006        -9.1432
  19   2.0000      -0.317744        -8.6462
  20   2.0000      -0.314858        -8.5677
  21   2.0000      -0.299272        -8.1436
  22   2.0000      -0.257120        -6.9966
  23   2.0000      -0.214599        -5.8395
  24   0.0000      -0.019213        -0.5228
  25   0.0000       0.044894         1.2216
  26   0.0000       0.063250         1.7211
  27   0.0000       0.089186         2.4269
  28   0.0000       0.090294         2.4570

MULLIKEN ATOMIC CHARGES
-----------------------
   0 C :   -0.304495
   1 C :   -0.130649
   2 C :    0.089342
   3 O :   -0.212873
   4 O :   -0.245027
   5 C :   -0.108298
   6 H :    0.116464
   7 H :    0.113199
   8 H :    0.116389
   9 H :    0.102188
  10 H :    0.105077
  11 H :    0.119439
  12 H :    0.120322
  13 H :    0.118921
Sum of atomic charges:   -0.0000000

LOEWDIN ATOMIC CHARGES
----------------------
   0 C :   -0.330897
   1 C :   -0.249028
   2 C :    0.033666
   3 O :   -0.170758
   4 O :   -0.077105
   5 C :   -0.203087
   6 H :    0.125170
   7 H :    0.122450
   8 H :    0.123958
   9 H :    0.131970
  10 H :    0.134570
  11 H :    0.119517
  12 H :    0.120025
  13 H :    0.119550

  Mayer bond orders larger than 0.100000
B(  0-C ,  1-C ) :   1.1404 B(  0-C ,  6-H ) :   0.9534 B(  0-C ,  7-H ) :   0.9541
B(  0-C ,  8-H ) :   0.9525 B(  1-C ,  2-C ) :   1.0299 B(  1-C ,  9-H ) :   0.9066
B(  1-C , 10-H ) :   0.9120 B(  2-C ,  3-O ) :   2.0614 B(  2-C ,  4-O ) :   1.2007
B(  4-O ,  5-C ) :   0.9403 B(  5-C , 11-H ) :   0.9495 B(  5-C , 12-H ) :   0.9591
B(  5-C , 13-H ) :   0.9548

Dispersion correction           -0.009181450
FINAL SINGLE POINT ENERGY      -307.026149083825

DIPOLE MOMENT
-------------

Method             : SCF
Type of density    : Electron Density
Multiplicity       :   1
Irrep              :   0
Energy             :  -307.0802767033542295 Eh
Relativity type    :
Basis              : AO
                                X                 Y                 Z
Electronic contribution:      2.447925574       2.160488877       1.901334994
Nuclear contribution   :     -2.332247930      -2.866618103      -2.090941402
                        -----------------------------------------
Total Dipole Moment    :      0.115677645      -0.706129226      -0.189606408
                        -----------------------------------------
Magnitude (a.u.)       :      0.740236713
Magnitude (Debye)      :      1.881532197

Rotational constants in cm-1:             0.221815             0.081290             0.068257
Rotational constants in MHz :          6649.851650          2437.023512          2046.297999

                             ****ORCA TERMINATED NORMALLY****
TOTAL RUN TIME: 0 days 0 hours 0 minutes 7 seconds 31 msec
