                         Program Version 6.0.0  -   RELEASE  -
|  1> ! pbe def2-sv(p) def2/J RI DEFGRID1 loosescf d4 GCP(DFT/SV(P)) printgap
|  2> %output
|  3>     printlevel normal
|  4> end
|  5> * xyz 0 1
|  6> C 1.9861527261 0.0249395393 -0.6500609588
|  7> C 1.2756937267 -0.3191418424 0.6542844835
|  8> C -0.2258446388 -0.5412461549 0.5087520303
|  9> H -0.656221691 -0.7688342675 1.4869526615
| 10> C -0.6092733944 -1.6095313125 -0.496754388
| 11> Cl -1.0175445453 1.0217379456 0.0286157556
| 12> H 1.5110215 0.8797112711 -1.1256166963
| 13> H 1.9680167405 -0.813892757 -1.3395385119
| 14> H 3.0232462346 0.2781382524 -0.4478501673
| 15> H 1.4374241835 0.4849053753 1.3749175889
| 16> H 1.7010181082 -1.233708302 1.0722859997
| 17> H -0.1209888851 -2.54263945 -0.2273025225
| 18> H -1.6852623387 -1.7625950057 -0.4941946925
| 19> H -0.3046860358 -1.3246648942 -1.4994669905
| 20> *
| 21>
| 22>                          ****END OF INPUT****

CARTESIAN COORDINATES (ANGSTROEM)
---------------------------------
  C      1.986153    0.024940   -0.650061
  C      1.275694   -0.319142    0.654284
  C     -0.225845   -0.541246    0.508752
  H     -0.656222   -0.768834    1.486953
  C     -0.609273   -1.609531   -0.496754
  Cl    -1.017545    1.021738    0.028616
  H      1.511022    0.879711   -1.125617
  H      1.968017   -0.813893   -1.339539
  H      3.023246    0.278138   -0.447850
  H      1.437424    0.484905    1.374918
  H      1.701018   -1.233708    1.072286
  H     -0.120989   -2.542639   -0.227303
  H     -1.685262   -1.762595   -0.494195
  H     -0.304686   -1.324665   -1.499467

 Total Charge           Charge          ....    0
 Multiplicity           Mult            ....    1
 Number of Electrons    NEL             ....   50
 Basis Dimension        Dim             ....   92

ORBITAL ENERGIES
----------------

  NO   OCC          E(Eh)            E(eV)
   0   2.0000    -100.612196     -2737.7970
   1   2.0000      -9.948810      -270.7209
   2   2.0000      -9.895545      -269.2715
   3   2.0000      -9.886653      -269.0295
   4   2.0000      -9.875912      -268.7372
   5   2.0000      -9.147924      -248.9277
   6   2.0000      -6.979169      -189.9129
   7   2.0000      -6.967798      -189.6034
   8   2.0000      -6.967678      -189.6002
   9   2.0000      -0.780315       -21.2334
  10   2.0000      -0.692309       -18.8387
  11   2.0000      -0.652473       -17.7547
  12   2.0000      -0.582104       -15.8399
  13   2.0000      -0.500341       -13.6150
  14   2.0000      -0.432762       -11.7760
  15   2.0000      -0.419767       -11.4224
  16   2.0000      -0.391586       -10.6556
  17   2.0000      -0.362414        -9.8618
  18   2.0000      -0.347636        -9.4597
  19   2.0000      -0.336225        -9.1492
  20   2.0000      -0.309034        -8.4092
  21   2.0000      -0.303428        -8.2567
  22   2.0000      -0.298943        -8.1346
  23   2.0000      -0.243075        -6.6144
  24   2.0000      -0.241274        -6.5654
  25   0.0000       0.010598         0.2884
  26   0.0000       0.033001         0.8980
  27   0.0000       0.065429         1.7804
  28   0.0000       0.079443         2.1618
  29   0.0000       0.091378         2.4865

MULLIKEN ATOMIC CHARGES
-----------------------
   0 C :   -0.294342
   1 C :   -0.134167
   2 C :   -0.182905
   3 H :    0.122462
   4 C :   -0.225718
   5 Cl:   -0.144225
   6 H :    0.112574
   7 H :    0.105307
   8 H :    0.106854
   9 H :    0.099138
  10 H :    0.093009
  11 H :    0.105712
  12 H :    0.116092
  13 H :    0.120209
Sum of atomic charges:    0.0000000

LOEWDIN ATOMIC CHARGES
----------------------
   0 C :   -0.348498
   1 C :   -0.244893
   2 C :   -0.184262
   3 H :    0.123259
   4 C :   -0.350156
   5 Cl:    0.022827
   6 H :    0.118871
   7 H :    0.117620
   8 H :    0.123017
   9 H :    0.121583
  10 H :    0.122467
  11 H :    0.125852
  12 H :    0.126396
  13 H :    0.125916

  Mayer bond orders larger than 0.100000
B(  0-C ,  1-C ) :   1.1478 B(  0-C ,  6-H ) :   0.9456 B(  0-C ,  7-H ) :   0.9497
B(  0-C ,  8-H ) :   0.9510 B(  1-C ,  2-C ) :   1.0669 B(  1-C ,  9-H ) :   0.9218
B(  1-C , 10-H ) :   0.9107 B(  2-C ,  3-H ) :   0.9142 B(  2-C ,  4-C ) :   1.1004
B(  2-C ,  5-Cl) :   1.0110 B(  4-C , 11-H ) :   0.9367 B(  4-C , 12-H ) :   0.9448
B(  4-C , 13-H ) :   0.9391

Dispersion correction           -0.010874123
FINAL SINGLE POINT ENERGY      -617.304282668662

DIPOLE MOMENT
-------------

Method             : SCF
Type of density    : Electron Density
Multiplicity       :   1
Irrep              :   0
Energy             :  -617.3507592052152404 Eh
Relativity type    :
Basis              : AO
                                X                 Y                 Z
Electronic contribution:     -7.466440208       7.124007431       1.330234943
Nuclear contribution   :      7.814299552      -7.754266806      -1.164039864
                        -----------------------------------------
Total Dipole Moment    :      0.347859344      -0.630259375       0.166195080
                        -----------------------------------------
Magnitude (a.u.)       :      0.738819198
Magnitude (Debye)      :      1.877929159

Rotational constants in cm-1:             0.161737             0.098776             0.076118
Rotational constants in MHz :          4848.764466          2961.216098          2281.956805

                             ****ORCA TERMINATED NORMALLY****
TOTAL RUN TIME: 0 days 0 hours 0 minutes 5 seconds 314 msec
