                         Program Version 6.0.0  -   RELEASE  -
|  1> ! pbe def2-sv(p) def2/J RI DEFGRID1 loosescf d4 GCP(DFT/SV(P)) printgap
|  2> %output
|  3>     printlevel normal
|  4> end
|  5> * xyz 0 1
|  6> C -2.5050659825 0.077934333 -0.0095807285
|  7> C -1.0981407955 -0.5089560582 -0.0251384061
|  8> C -0.0517095896 0.5898095326 0.0619572746
|  9> S 1.6567284368 -0.0602900565 -0.0454226755
| 10> H -3.2430535835 -0.7173869758 -0.0666467975
| 11> H -2.6731244157 0.6410627574 0.9054611058
| 12> H -2.6501189241 0.7452876482 -0.8558314076
| 13> H -0.9430551001 -1.0782541223 -0.9440130395
| 14> H -0.9771114961 -1.1933095148 0.8174204437
| 15> H -0.1345021533 1.2768493461 -0.7802024805
| 16> H -0.1342076891 1.1540050771 0.990345051
| 17> H 1.6034351346 -0.8024298562 1.0538884668
| 18> *
| 19>
| 20>                          ****END OF INPUT****

CARTESIAN COORDINATES (ANGSTROEM)
---------------------------------
  C     -2.505066    0.077934   -0.009581
  C     -1.098141   -0.508956   -0.025138
  C     -0.051710    0.589810    0.061957
  S      1.656728   -0.060290   -0.045423
  H     -3.243054   -0.717387   -0.066647
  H     -2.673124    0.641063    0.905461
  H     -2.650119    0.745288   -0.855831
  H     -0.943055   -1.078254   -0.944013
  H     -0.977111   -1.193310    0.817420
  H     -0.134502    1.276849   -0.780202
  H     -0.134208    1.154005    0.990345
  H      1.603435   -0.802430    1.053888

 Total Charge           Charge          ....    0
 Multiplicity           Mult            ....    1
 Number of Electrons    NEL             ....   42
 Basis Dimension        Dim             ....   76

ORBITAL ENERGIES
----------------

  NO   OCC          E(Eh)            E(eV)
   0   2.0000     -88.010737     -2394.8939
   1   2.0000      -9.916657      -269.8459
   2   2.0000      -9.892244      -269.1816
   3   2.0000      -9.880115      -268.8516
   4   2.0000      -7.657412      -208.3688
   5   2.0000      -5.685872      -154.7205
   6   2.0000      -5.681898      -154.6123
   7   2.0000      -5.673498      -154.3837
   8   2.0000      -0.734106       -19.9760
   9   2.0000      -0.668483       -18.1903
  10   2.0000      -0.580854       -15.8058
  11   2.0000      -0.528267       -14.3749
  12   2.0000      -0.433694       -11.8014
  13   2.0000      -0.396504       -10.7894
  14   2.0000      -0.369520       -10.0552
  15   2.0000      -0.360953        -9.8220
  16   2.0000      -0.331068        -9.0088
  17   2.0000      -0.309959        -8.4344
  18   2.0000      -0.300225        -8.1695
  19   2.0000      -0.276883        -7.5344
  20   2.0000      -0.191764        -5.2182
  21   0.0000       0.005690         0.1548
  22   0.0000       0.038052         1.0354
  23   0.0000       0.056901         1.5483
  24   0.0000       0.074480         2.0267
  25   0.0000       0.081256         2.2111

MULLIKEN ATOMIC CHARGES
-----------------------
   0 C :   -0.278626
   1 C :   -0.153964
   2 C :   -0.301338
   3 S :   -0.170941
   4 H :    0.109589
   5 H :    0.100511
   6 H :    0.102762
   7 H :    0.099068
   8 H :    0.087970
   9 H :    0.134221
  10 H :    0.130832
  11 H :    0.139917
Sum of atomic charges:    0.0000000

LOEWDIN ATOMIC CHARGES
----------------------
   0 C :   -0.341176
   1 C :   -0.254464
   2 C :   -0.333848
   3 S :    0.014061
   4 H :    0.122642
   5 H :    0.117797
   6 H :    0.118828
   7 H :    0.119483
   8 H :    0.114147
   9 H :    0.126831
  10 H :    0.120738
  11 H :    0.074962

  Mayer bond orders larger than 0.100000
B(  0-C ,  1-C ) :   1.1366 B(  0-C ,  4-H ) :   0.9517 B(  0-C ,  5-H ) :   0.9551
B(  0-C ,  6-H ) :   0.9563 B(  1-C ,  2-C ) :   1.0833 B(  1-C ,  7-H ) :   0.9264
B(  1-C ,  8-H ) :   0.9292 B(  2-C ,  3-S ) :   1.0724 B(  2-C ,  9-H ) :   0.9275
B(  2-C , 10-H ) :   0.9276 B(  3-S , 11-H ) :   0.9083

Dispersion correction           -0.007843721
FINAL SINGLE POINT ENERGY      -516.700033364191

DIPOLE MOMENT
-------------

Method             : SCF
Type of density    : Electron Density
Multiplicity       :   1
Irrep              :   0
Energy             :  -516.7419060566774078 Eh
Relativity type    :
Basis              : AO
                                X                 Y                 Z
Electronic contribution:      8.051725230      -0.045307993      -0.752779347
Nuclear contribution   :     -8.632979405       0.025940555       1.052439261
                        -----------------------------------------
Total Dipole Moment    :     -0.581254175      -0.019367437       0.299659914
                        -----------------------------------------
Magnitude (a.u.)       :      0.654238166
Magnitude (Debye)      :      1.662941262

Rotational constants in cm-1:             0.795252             0.079055             0.075775
Rotational constants in MHz :         23841.042134          2369.998084          2271.666044

                             ****ORCA TERMINATED NORMALLY****
TOTAL RUN TIME: 0 days 0 hours 0 minutes 4 seconds 358 msec
