                         Program Version 6.0.0  -   RELEASE  -
|  1> ! pbe def2-sv(p) def2/J RI DEFGRID1 loosescf d4 GCP(DFT/SV(P)) printgap
|  2> %output
|  3>     printlevel normal
|  4> end
|  5> * xyz 0 1
|  6> C -1.5556241641 -0.1248425618 0.5450453994
|  7> C -0.6720228419 0.4778509863 -0.5394791296
|  8> C 0.6691472698 -0.2468181043 -0.6488136896
|  9> N 1.4319393183 -0.1081757016 0.5852772598
| 10> H -1.8063612254 -1.1539134022 0.2996412289
| 11> H -1.0285564897 -0.1170286301 1.4944300123
| 12> H -2.4769768115 0.4430711083 0.6457805006
| 13> H -0.4875559588 1.531253978 -0.3158508638
| 14> H -1.1782728213 0.4237005932 -1.505188535
| 15> H 0.4926004359 -1.3146979062 -0.8068423586
| 16> H 1.2105991711 0.1387127299 -1.5314543503
| 17> H 1.6263213989 0.8734255023 0.75488961
| 18> H 2.3207231657 -0.5866518005 0.4963827139
| 19> *
| 20>
| 21>                          ****END OF INPUT****

CARTESIAN COORDINATES (ANGSTROEM)
---------------------------------
  C     -1.555624   -0.124843    0.545045
  C     -0.672023    0.477851   -0.539479
  C      0.669147   -0.246818   -0.648814
  N      1.431939   -0.108176    0.585277
  H     -1.806361   -1.153913    0.299641
  H     -1.028556   -0.117029    1.494430
  H     -2.476977    0.443071    0.645781
  H     -0.487556    1.531254   -0.315851
  H     -1.178273    0.423701   -1.505189
  H      0.492600   -1.314698   -0.806842
  H      1.210599    0.138713   -1.531454
  H      1.626321    0.873426    0.754890
  H      2.320723   -0.586652    0.496383

 Total Charge           Charge          ....    0
 Multiplicity           Mult            ....    1
 Number of Electrons    NEL             ....   34
 Basis Dimension        Dim             ....   74

ORBITAL ENERGIES
----------------

  NO   OCC          E(Eh)            E(eV)
   0   2.0000     -13.955148      -379.7389
   1   2.0000      -9.903183      -269.4793
   2   2.0000      -9.879296      -268.8293
   3   2.0000      -9.860950      -268.3301
   4   2.0000      -0.791797       -21.5459
   5   2.0000      -0.681076       -18.5330
   6   2.0000      -0.584988       -15.9183
   7   2.0000      -0.511488       -13.9183
   8   2.0000      -0.439031       -11.9467
   9   2.0000      -0.403838       -10.9890
  10   2.0000      -0.392717       -10.6864
  11   2.0000      -0.354967        -9.6591
  12   2.0000      -0.332848        -9.0573
  13   2.0000      -0.299787        -8.1576
  14   2.0000      -0.287617        -7.8264
  15   2.0000      -0.285145        -7.7592
  16   2.0000      -0.179386        -4.8813
  17   0.0000       0.033193         0.9032
  18   0.0000       0.068256         1.8574
  19   0.0000       0.075688         2.0596
  20   0.0000       0.091882         2.5002
  21   0.0000       0.113408         3.0860

MULLIKEN ATOMIC CHARGES
-----------------------
   0 C :   -0.271422
   1 C :   -0.198818
   2 C :   -0.075809
   3 N :   -0.460918
   4 H :    0.090756
   5 H :    0.111354
   6 H :    0.096725
   7 H :    0.078750
   8 H :    0.085073
   9 H :    0.077177
  10 H :    0.066176
  11 H :    0.198323
  12 H :    0.202633
Sum of atomic charges:    0.0000000

LOEWDIN ATOMIC CHARGES
----------------------
   0 C :   -0.344027
   1 C :   -0.241760
   2 C :   -0.176796
   3 N :   -0.416103
   4 H :    0.115449
   5 H :    0.122046
   6 H :    0.114801
   7 H :    0.110773
   8 H :    0.115727
   9 H :    0.108963
  10 H :    0.086796
  11 H :    0.200093
  12 H :    0.204038

  Mayer bond orders larger than 0.100000
B(  0-C ,  1-C ) :   1.1487 B(  0-C ,  4-H ) :   0.9564 B(  0-C ,  5-H ) :   0.9476
B(  0-C ,  6-H ) :   0.9543 B(  1-C ,  2-C ) :   1.1230 B(  1-C ,  7-H ) :   0.9288
B(  1-C ,  8-H ) :   0.9283 B(  2-C ,  3-N ) :   1.1006 B(  2-C ,  9-H ) :   0.9282
B(  2-C , 10-H ) :   0.9237 B(  3-N , 11-H ) :   0.9034 B(  3-N , 12-H ) :   0.9056

Dispersion correction           -0.007399331
FINAL SINGLE POINT ENERGY      -174.032473852741

DIPOLE MOMENT
-------------

Method             : SCF
Type of density    : Electron Density
Multiplicity       :   1
Irrep              :   0
Energy             :  -174.0823979866784157 Eh
Relativity type    :
Basis              : AO
                                X                 Y                 Z
Electronic contribution:      1.631826813      -0.014266415       0.121119450
Nuclear contribution   :     -1.237515095       0.222568942      -0.436039158
                        -----------------------------------------
Total Dipole Moment    :      0.394311718       0.208302527      -0.314919708
                        -----------------------------------------
Magnitude (a.u.)       :      0.545935982
Magnitude (Debye)      :      1.387658986

Rotational constants in cm-1:             0.465477             0.167227             0.143390
Rotational constants in MHz :         13954.657581          5013.347602          4298.726593

                             ****ORCA TERMINATED NORMALLY****
TOTAL RUN TIME: 0 days 0 hours 0 minutes 4 seconds 961 msec
