                         Program Version 6.0.0  -   RELEASE  -
|  1> ! wb97x-v def2-tzvp def2/J RIJCOSX DEFGRID2 scfconv7 GCP(DFT/TZ) printgap
|  2> %output
|  3>     printlevel normal
|  4> end
|  5> * xyz 0 1
|  6> C -2.5409059895305366 -0.9609395106253902 0.353449796631208
|  7> C -1.1253830685672919 -0.47069282929763884 0.5898236550012833
|  8> H -0.9566785071039571 -0.41946050241821636 1.678413519450558
|  9> C -0.8327499084544877 0.9006343477177118 -0.02894921994651274
| 10> H -1.031923877489547 0.8646748398954253 -1.1081805867052952
| 11> C 0.6283724563030123 1.2549731091970737 0.20133047220687877
| 12> H 0.7931594569399888 1.3777823752152827 1.2840871945641694
| 13> C 1.5447140812024474 0.1522237702489601 -0.31049652938055555
| 14> H 1.4466131372983901 0.07397045883890409 -1.4047547711386557
| 15> C 1.1367700870259623 -1.181836931712521 0.29941096169990306
| 16> H 1.2729096570928584 -1.1680147286906404 1.393514217757634
| 17> O -0.23884038119663617 -1.4419547471051406 0.0006601523778943172
| 18> O 1.9016740017099567 -2.1960303519012343 -0.29465915256170083
| 19> O 2.903490173041874 0.39973003324917383 0.05728676639615833
| 20> O 1.0002591199147723 2.4553938064553567 -0.4867897312786285
| 21> O -1.6153068130922499 1.9275404947676784 0.5934626916828469
| 22> O -2.894894299523835 -1.011652280182996 -1.033732483553027
| 23> H -3.243055262821155 -0.2729162392802667 0.8331238487996362
| 24> H -2.6561628912851822 -1.9483762739464316 0.8203133952866833
| 25> H 1.8465325953531628 -2.981649732705572 0.2668664060307951
| 26> H 3.135701273456717 1.272599212501779 -0.2878110422837077
| 27> H 0.5045968864004678 3.1810507209052292 -0.0843341655739979
| 28> H -2.4894678378298503 1.9277749703886748 0.1832429298197887
| 29> H -2.3098129598664316 -1.6533983955579954 -1.457671242526891
| 30> *
| 31>
| 32>                          ****END OF INPUT****

CARTESIAN COORDINATES (ANGSTROEM)
---------------------------------
  C     -2.540906   -0.960940    0.353450
  C     -1.125383   -0.470693    0.589824
  H     -0.956679   -0.419461    1.678414
  C     -0.832750    0.900634   -0.028949
  H     -1.031924    0.864675   -1.108181
  C      0.628372    1.254973    0.201330
  H      0.793159    1.377782    1.284087
  C      1.544714    0.152224   -0.310497
  H      1.446613    0.073970   -1.404755
  C      1.136770   -1.181837    0.299411
  H      1.272910   -1.168015    1.393514
  O     -0.238840   -1.441955    0.000660
  O      1.901674   -2.196030   -0.294659
  O      2.903490    0.399730    0.057287
  O      1.000259    2.455394   -0.486790
  O     -1.615307    1.927540    0.593463
  O     -2.894894   -1.011652   -1.033732
  H     -3.243055   -0.272916    0.833124
  H     -2.656163   -1.948376    0.820313
  H      1.846533   -2.981650    0.266866
  H      3.135701    1.272599   -0.287811
  H      0.504597    3.181051   -0.084334
  H     -2.489468    1.927775    0.183243
  H     -2.309813   -1.653398   -1.457671

 Total Charge           Charge          ....    0
 Multiplicity           Mult            ....    1
 Number of Electrons    NEL             ....   96
 Basis Dimension        Dim             ....  444

ORBITAL ENERGIES
----------------

  NO   OCC          E(Eh)            E(eV)
   0   2.0000     -21.694287      -590.3316
   1   2.0000     -21.694205      -590.3293
   2   2.0000     -21.688793      -590.1821
   3   2.0000     -21.684946      -590.0774
   4   2.0000     -21.682296      -590.0053
   5   2.0000     -21.672770      -589.7461
   6   2.0000     -12.159210      -330.8689
   7   2.0000     -12.114553      -329.6538
   8   2.0000     -12.110249      -329.5366
   9   2.0000     -12.108800      -329.4972
  10   2.0000     -12.107038      -329.4492
  11   2.0000     -12.104761      -329.3873
  12   2.0000      -1.723463       -46.8978
  13   2.0000      -1.697489       -46.1910
  14   2.0000      -1.687000       -45.9056
  15   2.0000      -1.684330       -45.8330
  16   2.0000      -1.678640       -45.6781
  17   2.0000      -1.673780       -45.5459
  18   2.0000      -1.340575       -36.4789
  19   2.0000      -1.325773       -36.0761
  20   2.0000      -1.243724       -33.8434
  21   2.0000      -1.199563       -32.6418
  22   2.0000      -1.171994       -31.8916
  23   2.0000      -1.119280       -30.4572
  24   2.0000      -1.092129       -29.7183
  25   2.0000      -1.070207       -29.1218
  26   2.0000      -1.057552       -28.7775
  27   2.0000      -1.044005       -28.4088
  28   2.0000      -1.037407       -28.2293
  29   2.0000      -1.017992       -27.7010
  30   2.0000      -1.002090       -27.2683
  31   2.0000      -0.981598       -26.7106
  32   2.0000      -0.979826       -26.6624
  33   2.0000      -0.969426       -26.3794
  34   2.0000      -0.966762       -26.3069
  35   2.0000      -0.949541       -25.8383
  36   2.0000      -0.942006       -25.6333
  37   2.0000      -0.935302       -25.4509
  38   2.0000      -0.922370       -25.0990
  39   2.0000      -0.904854       -24.6223
  40   2.0000      -0.901990       -24.5444
  41   2.0000      -0.887576       -24.1522
  42   2.0000      -0.849436       -23.1143
  43   2.0000      -0.844838       -22.9892
  44   2.0000      -0.821804       -22.3624
  45   2.0000      -0.806025       -21.9330
  46   2.0000      -0.803655       -21.8686
  47   2.0000      -0.777174       -21.1480
  48   0.0000      -0.241683        -6.5765
  49   0.0000      -0.195893        -5.3305
  50   0.0000      -0.174607        -4.7513
  51   0.0000      -0.159727        -4.3464
  52   0.0000      -0.133089        -3.6215

MULLIKEN ATOMIC CHARGES
-----------------------
   0 C :   -0.049364
   1 C :   -0.014645
   2 H :    0.075619
   3 C :    0.056377
   4 H :    0.095888
   5 C :    0.054755
   6 H :    0.087747
   7 C :    0.126453
   8 H :    0.080913
   9 C :    0.085666
  10 H :    0.066026
  11 O :   -0.273655
  12 O :   -0.384743
  13 O :   -0.430261
  14 O :   -0.459575
  15 O :   -0.458481
  16 O :   -0.458086
  17 H :    0.108960
  18 H :    0.110505
  19 H :    0.309125
  20 H :    0.314612
  21 H :    0.318123
  22 H :    0.319952
  23 H :    0.318091
Sum of atomic charges:   -0.0000000

LOEWDIN ATOMIC CHARGES
----------------------
   0 C :   -0.315545
   1 C :   -0.308852
   2 H :    0.144906
   3 C :   -0.307616
   4 H :    0.145519
   5 C :   -0.314332
   6 H :    0.144318
   7 C :   -0.304424
   8 H :    0.147349
   9 C :   -0.403193
  10 H :    0.123703
  11 O :    0.177613
  12 O :    0.025322
  13 O :   -0.007468
  14 O :   -0.018631
  15 O :   -0.014650
  16 O :   -0.047691
  17 H :    0.129301
  18 H :    0.123835
  19 H :    0.177225
  20 H :    0.176286
  21 H :    0.176636
  22 H :    0.175602
  23 H :    0.174787

  Mayer bond orders larger than 0.100000
B(  0-C ,  1-C ) :   0.9566 B(  0-C , 16-O ) :   1.0016 B(  0-C , 17-H ) :   0.9768
B(  0-C , 18-H ) :   0.9831 B(  1-C ,  2-H ) :   0.9624 B(  1-C ,  3-C ) :   0.9318
B(  1-C , 11-O ) :   0.9906 B(  3-C ,  4-H ) :   0.9601 B(  3-C ,  5-C ) :   0.9357
B(  3-C , 15-O ) :   1.0653 B(  5-C ,  6-H ) :   0.9735 B(  5-C ,  7-C ) :   0.9579
B(  5-C , 14-O ) :   1.0642 B(  7-C ,  8-H ) :   0.9670 B(  7-C ,  9-C ) :   0.9367
B(  7-C , 13-O ) :   1.1171 B(  9-C , 10-H ) :   0.9808 B(  9-C , 11-O ) :   1.0161
B(  9-C , 12-O ) :   1.2550 B( 12-O , 19-H ) :   0.8951 B( 13-O , 20-H ) :   0.8867
B( 14-O , 21-H ) :   0.8877 B( 15-O , 22-H ) :   0.8950 B( 16-O , 23-H ) :   0.8879

FINAL SINGLE POINT ENERGY      -687.249010065777

DIPOLE MOMENT
-------------

Method             : SCF
Type of density    : Electron Density
Multiplicity       :   1
Irrep              :   0
Energy             :  -687.2678370153773812 Eh
Relativity type    :
Basis              : AO
                                X                 Y                 Z
Electronic contribution:      2.696797341      -0.338777655      -1.434643245
Nuclear contribution   :     -3.374747154       0.321336404       2.171439419
                        -----------------------------------------
Total Dipole Moment    :     -0.677949813      -0.017441251       0.736796174
                        -----------------------------------------
Magnitude (a.u.)       :      1.001393403
Magnitude (Debye)      :      2.545339749

Rotational constants in cm-1:             0.039410             0.026509             0.017458
Rotational constants in MHz :          1181.496521           794.713637           523.371734

                             ****ORCA TERMINATED NORMALLY****
TOTAL RUN TIME: 0 days 0 hours 4 minutes 49 seconds 567 msec
