                         Program Version 6.0.0  -   RELEASE  -
|  1> ! wb97x-v def2-tzvp def2/J RIJCOSX DEFGRID2 scfconv7 GCP(DFT/TZ) printgap
|  2> %output
|  3>     printlevel normal
|  4> end
|  5> %cpcm
|  6>     smd true
|  7>     smdsolvent "water"
|  8> end
|  9> * xyz 0 1
| 10> C -2.5409059895305366 -0.9609395106253902 0.353449796631208
| 11> C -1.1253830685672919 -0.47069282929763884 0.5898236550012833
| 12> H -0.9566785071039571 -0.41946050241821636 1.678413519450558
| 13> C -0.8327499084544877 0.9006343477177118 -0.02894921994651274
| 14> H -1.031923877489547 0.8646748398954253 -1.1081805867052952
| 15> C 0.6283724563030123 1.2549731091970737 0.20133047220687877
| 16> H 0.7931594569399888 1.3777823752152827 1.2840871945641694
| 17> C 1.5447140812024474 0.1522237702489601 -0.31049652938055555
| 18> H 1.4466131372983901 0.07397045883890409 -1.4047547711386557
| 19> C 1.1367700870259623 -1.181836931712521 0.29941096169990306
| 20> H 1.2729096570928584 -1.1680147286906404 1.393514217757634
| 21> O -0.23884038119663617 -1.4419547471051406 0.0006601523778943172
| 22> O 1.9016740017099567 -2.1960303519012343 -0.29465915256170083
| 23> O 2.903490173041874 0.39973003324917383 0.05728676639615833
| 24> O 1.0002591199147723 2.4553938064553567 -0.4867897312786285
| 25> O -1.6153068130922499 1.9275404947676784 0.5934626916828469
| 26> O -2.894894299523835 -1.011652280182996 -1.033732483553027
| 27> H -3.243055262821155 -0.2729162392802667 0.8331238487996362
| 28> H -2.6561628912851822 -1.9483762739464316 0.8203133952866833
| 29> H 1.8465325953531628 -2.981649732705572 0.2668664060307951
| 30> H 3.135701273456717 1.272599212501779 -0.2878110422837077
| 31> H 0.5045968864004678 3.1810507209052292 -0.0843341655739979
| 32> H -2.4894678378298503 1.9277749703886748 0.1832429298197887
| 33> H -2.3098129598664316 -1.6533983955579954 -1.457671242526891
| 34> *
| 35>
| 36>                          ****END OF INPUT****

CARTESIAN COORDINATES (ANGSTROEM)
---------------------------------
  C     -2.540906   -0.960940    0.353450
  C     -1.125383   -0.470693    0.589824
  H     -0.956679   -0.419461    1.678414
  C     -0.832750    0.900634   -0.028949
  H     -1.031924    0.864675   -1.108181
  C      0.628372    1.254973    0.201330
  H      0.793159    1.377782    1.284087
  C      1.544714    0.152224   -0.310497
  H      1.446613    0.073970   -1.404755
  C      1.136770   -1.181837    0.299411
  H      1.272910   -1.168015    1.393514
  O     -0.238840   -1.441955    0.000660
  O      1.901674   -2.196030   -0.294659
  O      2.903490    0.399730    0.057287
  O      1.000259    2.455394   -0.486790
  O     -1.615307    1.927540    0.593463
  O     -2.894894   -1.011652   -1.033732
  H     -3.243055   -0.272916    0.833124
  H     -2.656163   -1.948376    0.820313
  H      1.846533   -2.981650    0.266866
  H      3.135701    1.272599   -0.287811
  H      0.504597    3.181051   -0.084334
  H     -2.489468    1.927775    0.183243
  H     -2.309813   -1.653398   -1.457671

 Total Charge           Charge          ....    0
 Multiplicity           Mult            ....    1
 Number of Electrons    NEL             ....   96
 Basis Dimension        Dim             ....  444

ORBITAL ENERGIES
----------------

  NO   OCC          E(Eh)            E(eV)
   0   2.0000     -21.691086      -590.2444
   1   2.0000     -21.690827      -590.2374
   2   2.0000     -21.683130      -590.0280
   3   2.0000     -21.681842      -589.9929
   4   2.0000     -21.681680      -589.9885
   5   2.0000     -21.677736      -589.8812
   6   2.0000     -12.153478      -330.7130
   7   2.0000     -12.103478      -329.3524
   8   2.0000     -12.101984      -329.3117
   9   2.0000     -12.101687      -329.3036
  10   2.0000     -12.099518      -329.2446
  11   2.0000     -12.091912      -329.0377
  12   2.0000      -1.722766       -46.8789
  13   2.0000      -1.690465       -45.9999
  14   2.0000      -1.685971       -45.8776
  15   2.0000      -1.681076       -45.7444
  16   2.0000      -1.678215       -45.6666
  17   2.0000      -1.675889       -45.6033
  18   2.0000      -1.333043       -36.2739
  19   2.0000      -1.319813       -35.9139
  20   2.0000      -1.235914       -33.6309
  21   2.0000      -1.194886       -32.5145
  22   2.0000      -1.166884       -31.7525
  23   2.0000      -1.116790       -30.3894
  24   2.0000      -1.089769       -29.6541
  25   2.0000      -1.063893       -28.9500
  26   2.0000      -1.052573       -28.6420
  27   2.0000      -1.042329       -28.3632
  28   2.0000      -1.034397       -28.1474
  29   2.0000      -1.013871       -27.5888
  30   2.0000      -1.005074       -27.3495
  31   2.0000      -0.979316       -26.6485
  32   2.0000      -0.977206       -26.5911
  33   2.0000      -0.968280       -26.3482
  34   2.0000      -0.966661       -26.3042
  35   2.0000      -0.945266       -25.7220
  36   2.0000      -0.940797       -25.6004
  37   2.0000      -0.937235       -25.5035
  38   2.0000      -0.923576       -25.1318
  39   2.0000      -0.901911       -24.5423
  40   2.0000      -0.895466       -24.3669
  41   2.0000      -0.888786       -24.1851
  42   2.0000      -0.846495       -23.0343
  43   2.0000      -0.832468       -22.6526
  44   2.0000      -0.814878       -22.1740
  45   2.0000      -0.799957       -21.7679
  46   2.0000      -0.793111       -21.5817
  47   2.0000      -0.769745       -20.9458
  48   0.0000      -0.234693        -6.3863
  49   0.0000      -0.190230        -5.1764
  50   0.0000      -0.169722        -4.6184
  51   0.0000      -0.148922        -4.0524
  52   0.0000      -0.125639        -3.4188

MULLIKEN ATOMIC CHARGES
-----------------------
   0 C :   -0.031709
   1 C :    0.007784
   2 H :    0.113367
   3 C :    0.035771
   4 H :    0.102090
   5 C :    0.089742
   6 H :    0.107175
   7 C :    0.126550
   8 H :    0.097825
   9 C :    0.105590
  10 H :    0.107135
  11 O :   -0.330371
  12 O :   -0.487916
  13 O :   -0.524413
  14 O :   -0.533126
  15 O :   -0.531809
  16 O :   -0.554192
  17 H :    0.135589
  18 H :    0.133169
  19 H :    0.375567
  20 H :    0.361976
  21 H :    0.362607
  22 H :    0.371689
  23 H :    0.359910
Sum of atomic charges:   -0.0000000

LOEWDIN ATOMIC CHARGES
----------------------
   0 C :   -0.309130
   1 C :   -0.299284
   2 H :    0.157895
   3 C :   -0.302909
   4 H :    0.148310
   5 C :   -0.308377
   6 H :    0.153300
   7 C :   -0.307340
   8 H :    0.151082
   9 C :   -0.400290
  10 H :    0.138755
  11 O :    0.160267
  12 O :   -0.012851
  13 O :   -0.043753
  14 O :   -0.044249
  15 O :   -0.036542
  16 O :   -0.082302
  17 H :    0.138950
  18 H :    0.130329
  19 H :    0.201196
  20 H :    0.191717
  21 H :    0.191651
  22 H :    0.195377
  23 H :    0.188200

  Mayer bond orders larger than 0.100000
B(  0-C ,  1-C ) :   0.9582 B(  0-C , 16-O ) :   0.9618 B(  0-C , 17-H ) :   0.9671
B(  0-C , 18-H ) :   0.9820 B(  1-C ,  2-H ) :   0.9524 B(  1-C ,  3-C ) :   0.9629
B(  1-C , 11-O ) :   0.9537 B(  3-C ,  4-H ) :   0.9602 B(  3-C ,  5-C ) :   0.9646
B(  3-C , 15-O ) :   1.0488 B(  5-C ,  6-H ) :   0.9589 B(  5-C ,  7-C ) :   0.9843
B(  5-C , 14-O ) :   1.0380 B(  7-C ,  8-H ) :   0.9533 B(  7-C ,  9-C ) :   0.9514
B(  7-C , 13-O ) :   1.0620 B(  9-C , 10-H ) :   0.9819 B(  9-C , 11-O ) :   1.0201
B(  9-C , 12-O ) :   1.1995 B( 12-O , 19-H ) :   0.8539 B( 13-O , 20-H ) :   0.8576
B( 14-O , 21-H ) :   0.8590 B( 15-O , 22-H ) :   0.8610 B( 16-O , 23-H ) :   0.8620

FINAL SINGLE POINT ENERGY      -687.287672265846

DIPOLE MOMENT
-------------

Method             : SCF
Type of density    : Electron Density
Multiplicity       :   1
Irrep              :   0
Energy             :  -687.3064992154461379 Eh
Relativity type    :
Basis              : AO
                                X                 Y                 Z
Electronic contribution:      2.376177836      -0.306020597      -1.011446669
Nuclear contribution   :     -3.374747154       0.321336404       2.171439419
                        -----------------------------------------
Total Dipole Moment    :     -0.998569317       0.015315807       1.159992750
                        -----------------------------------------
Magnitude (a.u.)       :      1.530672544
Magnitude (Debye)      :      3.890660410

Rotational constants in cm-1:             0.039410             0.026509             0.017458
Rotational constants in MHz :          1181.496521           794.713637           523.371734

                             ****ORCA TERMINATED NORMALLY****
TOTAL RUN TIME: 0 days 0 hours 5 minutes 25 seconds 539 msec
