                         Program Version 6.0.0  -   RELEASE  -
|  1> ! wb97x-v def2-tzvp def2/J RIJCOSX DEFGRID2 scfconv7 GCP(DFT/TZ) printgap
|  2> %output
|  3>     printlevel normal
|  4> end
|  5> * xyz 0 1
|  6> C 3.69769723871951 0.37553869048022387 0.07626447229054104
|  7> C 2.2264178276304842 0.329348731578437 -0.32528125490041954
|  8> H 2.1572622724884085 0.44160142572042416 -1.4179214916001257
|  9> C 1.4312828997491784 1.4685973217299755 0.3166324646560658
| 10> C -0.05342459553376324 1.3952506722267572 -0.0398729953187714
| 11> C -0.6755776319668659 0.049362712617978095 0.362644796059493
| 12> H -0.5250768808873535 -0.07617532731973253 1.447178455673359
| 13> C 0.11266328025707936 -1.069220190814148 -0.31819643548792065
| 14> H 0.01848913424135741 -0.9640778806267433 -1.4110124046096146
| 15> C 1.590333916631364 -1.0110504016501982 0.054709589966272176
| 16> O -0.457318380155202 -2.339615194749169 0.0786315723605717
| 17> C -2.1996930042946246 -0.03194808797203524 0.11376684123722655
| 18> C -2.9610650549563213 0.9728228511704702 0.982673236042384
| 19> C -2.5932491859080624 0.1348651102817425 -1.3556832553132852
| 20> H 4.155920028107567 1.32816694411738 -0.21170908987652037
| 21> H 3.8028382336510553 0.26636888215964566 1.1624857937314654
| 22> H 4.266543573892802 -0.43086554672682403 -0.39948892434118344
| 23> H 1.5488540185271509 1.4087698950482233 1.4086255990860428
| 24> H 1.8462621616432324 2.434607000113653 0.002811341467337172
| 25> H -0.592137314598105 2.212740428197618 0.4501410490644049
| 26> H -0.16805685392389272 1.5416853029978685 -1.1221125998160528
| 27> H 1.6839258774160575 -1.161751626051509 1.1401625537867301
| 28> H 2.1218885063390918 -1.8355921424426116 -0.4396262763750259
| 29> H 0.08911211455419339 -3.029631389669193 -0.32020127092259615
| 30> H -2.514717462694665 -1.033508025864685 0.4309306665143277
| 31> H -4.039145018550112 0.7867789930265479 0.9270503188420545
| 32> H -2.7896476107452823 2.0034702518264464 0.6533713476811557
| 33> H -2.660559262368001 0.8993919779634273 2.034268661225454
| 34> H -2.343682298448457 1.1358712251099965 -1.7246554900913773
| 35> H -3.674472042724558 0.0021524274534938537 -1.4724387411020239
| 36> H -2.099600653401621 -0.5978900220219632 -2.0025125116324056
| 37> *
| 38>
| 39>                          ****END OF INPUT****

CARTESIAN COORDINATES (ANGSTROEM)
---------------------------------
  C      3.697697    0.375539    0.076264
  C      2.226418    0.329349   -0.325281
  H      2.157262    0.441601   -1.417921
  C      1.431283    1.468597    0.316632
  C     -0.053425    1.395251   -0.039873
  C     -0.675578    0.049363    0.362645
  H     -0.525077   -0.076175    1.447178
  C      0.112663   -1.069220   -0.318196
  H      0.018489   -0.964078   -1.411012
  C      1.590334   -1.011050    0.054710
  O     -0.457318   -2.339615    0.078632
  C     -2.199693   -0.031948    0.113767
  C     -2.961065    0.972823    0.982673
  C     -2.593249    0.134865   -1.355683
  H      4.155920    1.328167   -0.211709
  H      3.802838    0.266369    1.162486
  H      4.266544   -0.430866   -0.399489
  H      1.548854    1.408770    1.408626
  H      1.846262    2.434607    0.002811
  H     -0.592137    2.212740    0.450141
  H     -0.168057    1.541685   -1.122113
  H      1.683926   -1.161752    1.140163
  H      2.121889   -1.835592   -0.439626
  H      0.089112   -3.029631   -0.320201
  H     -2.514717   -1.033508    0.430931
  H     -4.039145    0.786779    0.927050
  H     -2.789648    2.003470    0.653371
  H     -2.660559    0.899392    2.034269
  H     -2.343682    1.135871   -1.724655
  H     -3.674472    0.002152   -1.472439
  H     -2.099601   -0.597890   -2.002513

 Total Charge           Charge          ....    0
 Multiplicity           Mult            ....    1
 Number of Electrons    NEL             ....   88
 Basis Dimension        Dim             ....  461

ORBITAL ENERGIES
----------------

  NO   OCC          E(Eh)            E(eV)
   0   2.0000     -21.665437      -589.5465
   1   2.0000     -12.090496      -328.9991
   2   2.0000     -12.049248      -327.8767
   3   2.0000     -12.041266      -327.6595
   4   2.0000     -12.039687      -327.6165
   5   2.0000     -12.038712      -327.5900
   6   2.0000     -12.038475      -327.5835
   7   2.0000     -12.037059      -327.5450
   8   2.0000     -12.034697      -327.4808
   9   2.0000     -12.026269      -327.2514
  10   2.0000     -12.025770      -327.2378
  11   2.0000      -1.663645       -45.2701
  12   2.0000      -1.353011       -36.8173
  13   2.0000      -1.306773       -35.5591
  14   2.0000      -1.254457       -34.1355
  15   2.0000      -1.249139       -33.9908
  16   2.0000      -1.175521       -31.9876
  17   2.0000      -1.168368       -31.7929
  18   2.0000      -1.120132       -30.4803
  19   2.0000      -1.094772       -29.7903
  20   2.0000      -1.033463       -28.1220
  21   2.0000      -1.024622       -27.8814
  22   2.0000      -1.005040       -27.3485
  23   2.0000      -0.946233       -25.7483
  24   2.0000      -0.926625       -25.2147
  25   2.0000      -0.898254       -24.4427
  26   2.0000      -0.890369       -24.2282
  27   2.0000      -0.874681       -23.8013
  28   2.0000      -0.862960       -23.4823
  29   2.0000      -0.855695       -23.2846
  30   2.0000      -0.854198       -23.2439
  31   2.0000      -0.836352       -22.7583
  32   2.0000      -0.828132       -22.5346
  33   2.0000      -0.813578       -22.1386
  34   2.0000      -0.799660       -21.7599
  35   2.0000      -0.798662       -21.7327
  36   2.0000      -0.792314       -21.5600
  37   2.0000      -0.778924       -21.1956
  38   2.0000      -0.774884       -21.0857
  39   2.0000      -0.769623       -20.9425
  40   2.0000      -0.756515       -20.5858
  41   2.0000      -0.747456       -20.3393
  42   2.0000      -0.738502       -20.0957
  43   2.0000      -0.731895       -19.9159
  44   0.0000      -0.155523        -4.2320
  45   0.0000      -0.059227        -1.6117
  46   0.0000      -0.052888        -1.4392
  47   0.0000      -0.041084        -1.1180
  48   0.0000      -0.030324        -0.8252

MULLIKEN ATOMIC CHARGES
-----------------------
   0 C :   -0.340621
   1 C :   -0.028713
   2 H :    0.063599
   3 C :   -0.198578
   4 C :   -0.248632
   5 C :   -0.002237
   6 H :    0.066625
   7 C :    0.053711
   8 H :    0.074959
   9 C :   -0.253772
  10 O :   -0.439320
  11 C :    0.053349
  12 C :   -0.371151
  13 C :   -0.410668
  14 H :    0.112304
  15 H :    0.105983
  16 H :    0.110702
  17 H :    0.089611
  18 H :    0.101720
  19 H :    0.108706
  20 H :    0.101956
  21 H :    0.103907
  22 H :    0.089033
  23 H :    0.293276
  24 H :    0.093175
  25 H :    0.114348
  26 H :    0.105540
  27 H :    0.111782
  28 H :    0.108264
  29 H :    0.113294
  30 H :    0.117849
Sum of atomic charges:    0.0000000

LOEWDIN ATOMIC CHARGES
----------------------
   0 C :   -0.279879
   1 C :   -0.281331
   2 H :    0.148029
   3 C :   -0.233510
   4 C :   -0.224770
   5 C :   -0.214267
   6 H :    0.157916
   7 C :   -0.306453
   8 H :    0.133358
   9 C :   -0.223167
  10 O :   -0.031501
  11 C :   -0.281076
  12 C :   -0.282404
  13 C :   -0.280670
  14 H :    0.118487
  15 H :    0.119622
  16 H :    0.117707
  17 H :    0.137210
  18 H :    0.133987
  19 H :    0.136636
  20 H :    0.137385
  21 H :    0.142152
  22 H :    0.131390
  23 H :    0.165236
  24 H :    0.155357
  25 H :    0.118207
  26 H :    0.114588
  27 H :    0.118287
  28 H :    0.116114
  29 H :    0.119590
  30 H :    0.117770

  Mayer bond orders larger than 0.100000
B(  0-C ,  1-C ) :   0.9689 B(  0-C , 14-H ) :   0.9862 B(  0-C , 15-H ) :   0.9747
B(  0-C , 16-H ) :   0.9867 B(  1-C ,  2-H ) :   0.9696 B(  1-C ,  3-C ) :   0.9886
B(  1-C ,  9-C ) :   0.9797 B(  3-C ,  4-C ) :   1.0083 B(  3-C , 17-H ) :   0.9665
B(  3-C , 18-H ) :   0.9754 B(  4-C ,  5-C ) :   0.9593 B(  4-C , 19-H ) :   0.9760
B(  4-C , 20-H ) :   0.9673 B(  5-C ,  6-H ) :   0.9583 B(  5-C ,  7-C ) :   0.9700
B(  5-C , 11-C ) :   0.9495 B(  7-C ,  8-H ) :   0.9827 B(  7-C ,  9-C ) :   0.9792
B(  7-C , 10-O ) :   1.0656 B(  9-C , 21-H ) :   0.9681 B(  9-C , 22-H ) :   0.9698
B( 10-O , 23-H ) :   0.9057 B( 11-C , 12-C ) :   0.9537 B( 11-C , 13-C ) :   0.9458
B( 11-C , 24-H ) :   0.9747 B( 12-C , 25-H ) :   0.9876 B( 12-C , 26-H ) :   0.9773
B( 12-C , 27-H ) :   0.9843 B( 13-C , 28-H ) :   0.9783 B( 13-C , 29-H ) :   0.9830
B( 13-C , 30-H ) :   0.9861

FINAL SINGLE POINT ENERGY      -468.378661743248

DIPOLE MOMENT
-------------

Method             : SCF
Type of density    : Electron Density
Multiplicity       :   1
Irrep              :   0
Energy             :  -468.4014680665478636 Eh
Relativity type    :
Basis              : AO
                                X                 Y                 Z
Electronic contribution:      0.247072482      -4.960096303       0.339886684
Nuclear contribution   :      0.274027876       5.047793115      -0.665460501
                        -----------------------------------------
Total Dipole Moment    :      0.521100358       0.087696812      -0.325573817
                        -----------------------------------------
Magnitude (a.u.)       :      0.620672719
Magnitude (Debye)      :      1.577624675

Rotational constants in cm-1:             0.059118             0.023190             0.019093
Rotational constants in MHz :          1772.317870           695.230586           572.398655

                             ****ORCA TERMINATED NORMALLY****
TOTAL RUN TIME: 0 days 0 hours 6 minutes 19 seconds 356 msec
