                         Program Version 6.0.0  -   RELEASE  -
|  1> ! wb97x-v def2-tzvp def2/J RIJCOSX DEFGRID2 scfconv7 GCP(DFT/TZ) printgap
|  2> %output
|  3>     printlevel normal
|  4> end
|  5> %cpcm
|  6>     smd true
|  7>     smdsolvent "water"
|  8> end
|  9> * xyz 0 1
| 10> C 3.69769723871951 0.37553869048022387 0.07626447229054104
| 11> C 2.2264178276304842 0.329348731578437 -0.32528125490041954
| 12> H 2.1572622724884085 0.44160142572042416 -1.4179214916001257
| 13> C 1.4312828997491784 1.4685973217299755 0.3166324646560658
| 14> C -0.05342459553376324 1.3952506722267572 -0.0398729953187714
| 15> C -0.6755776319668659 0.049362712617978095 0.362644796059493
| 16> H -0.5250768808873535 -0.07617532731973253 1.447178455673359
| 17> C 0.11266328025707936 -1.069220190814148 -0.31819643548792065
| 18> H 0.01848913424135741 -0.9640778806267433 -1.4110124046096146
| 19> C 1.590333916631364 -1.0110504016501982 0.054709589966272176
| 20> O -0.457318380155202 -2.339615194749169 0.0786315723605717
| 21> C -2.1996930042946246 -0.03194808797203524 0.11376684123722655
| 22> C -2.9610650549563213 0.9728228511704702 0.982673236042384
| 23> C -2.5932491859080624 0.1348651102817425 -1.3556832553132852
| 24> H 4.155920028107567 1.32816694411738 -0.21170908987652037
| 25> H 3.8028382336510553 0.26636888215964566 1.1624857937314654
| 26> H 4.266543573892802 -0.43086554672682403 -0.39948892434118344
| 27> H 1.5488540185271509 1.4087698950482233 1.4086255990860428
| 28> H 1.8462621616432324 2.434607000113653 0.002811341467337172
| 29> H -0.592137314598105 2.212740428197618 0.4501410490644049
| 30> H -0.16805685392389272 1.5416853029978685 -1.1221125998160528
| 31> H 1.6839258774160575 -1.161751626051509 1.1401625537867301
| 32> H 2.1218885063390918 -1.8355921424426116 -0.4396262763750259
| 33> H 0.08911211455419339 -3.029631389669193 -0.32020127092259615
| 34> H -2.514717462694665 -1.033508025864685 0.4309306665143277
| 35> H -4.039145018550112 0.7867789930265479 0.9270503188420545
| 36> H -2.7896476107452823 2.0034702518264464 0.6533713476811557
| 37> H -2.660559262368001 0.8993919779634273 2.034268661225454
| 38> H -2.343682298448457 1.1358712251099965 -1.7246554900913773
| 39> H -3.674472042724558 0.0021524274534938537 -1.4724387411020239
| 40> H -2.099600653401621 -0.5978900220219632 -2.0025125116324056
| 41> *
| 42>
| 43>                          ****END OF INPUT****

CARTESIAN COORDINATES (ANGSTROEM)
---------------------------------
  C      3.697697    0.375539    0.076264
  C      2.226418    0.329349   -0.325281
  H      2.157262    0.441601   -1.417921
  C      1.431283    1.468597    0.316632
  C     -0.053425    1.395251   -0.039873
  C     -0.675578    0.049363    0.362645
  H     -0.525077   -0.076175    1.447178
  C      0.112663   -1.069220   -0.318196
  H      0.018489   -0.964078   -1.411012
  C      1.590334   -1.011050    0.054710
  O     -0.457318   -2.339615    0.078632
  C     -2.199693   -0.031948    0.113767
  C     -2.961065    0.972823    0.982673
  C     -2.593249    0.134865   -1.355683
  H      4.155920    1.328167   -0.211709
  H      3.802838    0.266369    1.162486
  H      4.266544   -0.430866   -0.399489
  H      1.548854    1.408770    1.408626
  H      1.846262    2.434607    0.002811
  H     -0.592137    2.212740    0.450141
  H     -0.168057    1.541685   -1.122113
  H      1.683926   -1.161752    1.140163
  H      2.121889   -1.835592   -0.439626
  H      0.089112   -3.029631   -0.320201
  H     -2.514717   -1.033508    0.430931
  H     -4.039145    0.786779    0.927050
  H     -2.789648    2.003470    0.653371
  H     -2.660559    0.899392    2.034269
  H     -2.343682    1.135871   -1.724655
  H     -3.674472    0.002152   -1.472439
  H     -2.099601   -0.597890   -2.002513

 Total Charge           Charge          ....    0
 Multiplicity           Mult            ....    1
 Number of Electrons    NEL             ....   88
 Basis Dimension        Dim             ....  461

ORBITAL ENERGIES
----------------

  NO   OCC          E(Eh)            E(eV)
   0   2.0000     -21.668147      -589.6203
   1   2.0000     -12.083546      -328.8100
   2   2.0000     -12.037298      -327.5515
   3   2.0000     -12.036531      -327.5306
   4   2.0000     -12.034295      -327.4698
   5   2.0000     -12.027894      -327.2956
   6   2.0000     -12.027631      -327.2885
   7   2.0000     -12.026478      -327.2571
   8   2.0000     -12.023014      -327.1629
   9   2.0000     -12.021289      -327.1159
  10   2.0000     -12.020855      -327.1041
  11   2.0000      -1.666616       -45.3509
  12   2.0000      -1.344252       -36.5790
  13   2.0000      -1.299774       -35.3686
  14   2.0000      -1.247768       -33.9535
  15   2.0000      -1.239641       -33.7324
  16   2.0000      -1.166115       -31.7316
  17   2.0000      -1.164258       -31.6811
  18   2.0000      -1.114674       -30.3318
  19   2.0000      -1.087464       -29.5914
  20   2.0000      -1.025781       -27.9129
  21   2.0000      -1.022295       -27.8181
  22   2.0000      -1.000055       -27.2129
  23   2.0000      -0.947384       -25.7796
  24   2.0000      -0.925147       -25.1745
  25   2.0000      -0.889933       -24.2163
  26   2.0000      -0.883701       -24.0467
  27   2.0000      -0.868361       -23.6293
  28   2.0000      -0.856106       -23.2958
  29   2.0000      -0.847666       -23.0662
  30   2.0000      -0.846590       -23.0369
  31   2.0000      -0.828679       -22.5495
  32   2.0000      -0.820354       -22.3230
  33   2.0000      -0.804527       -21.8923
  34   2.0000      -0.794224       -21.6119
  35   2.0000      -0.789000       -21.4698
  36   2.0000      -0.783927       -21.3317
  37   2.0000      -0.772987       -21.0341
  38   2.0000      -0.765934       -20.8421
  39   2.0000      -0.762270       -20.7424
  40   2.0000      -0.747258       -20.3339
  41   2.0000      -0.739300       -20.1174
  42   2.0000      -0.733953       -19.9719
  43   2.0000      -0.721795       -19.6410
  44   0.0000      -0.150212        -4.0875
  45   0.0000      -0.047575        -1.2946
  46   0.0000      -0.038556        -1.0492
  47   0.0000      -0.032822        -0.8931
  48   0.0000      -0.019886        -0.5411

MULLIKEN ATOMIC CHARGES
-----------------------
   0 C :   -0.402865
   1 C :   -0.010113
   2 H :    0.075728
   3 C :   -0.225267
   4 C :   -0.273636
   5 C :    0.009569
   6 H :    0.076050
   7 C :    0.043756
   8 H :    0.099337
   9 C :   -0.265973
  10 O :   -0.547502
  11 C :    0.053936
  12 C :   -0.427694
  13 C :   -0.457096
  14 H :    0.127464
  15 H :    0.120111
  16 H :    0.127704
  17 H :    0.099028
  18 H :    0.114056
  19 H :    0.122912
  20 H :    0.114970
  21 H :    0.102571
  22 H :    0.119811
  23 H :    0.354173
  24 H :    0.075152
  25 H :    0.130631
  26 H :    0.125642
  27 H :    0.126696
  28 H :    0.127246
  29 H :    0.130297
  30 H :    0.133303
Sum of atomic charges:    0.0000000

LOEWDIN ATOMIC CHARGES
----------------------
   0 C :   -0.287144
   1 C :   -0.279354
   2 H :    0.151538
   3 C :   -0.235965
   4 C :   -0.225031
   5 C :   -0.217407
   6 H :    0.158665
   7 C :   -0.302745
   8 H :    0.140952
   9 C :   -0.221713
  10 O :   -0.071426
  11 C :   -0.285746
  12 C :   -0.288226
  13 C :   -0.287030
  14 H :    0.120271
  15 H :    0.121269
  16 H :    0.120111
  17 H :    0.138723
  18 H :    0.135681
  19 H :    0.138701
  20 H :    0.140732
  21 H :    0.141523
  22 H :    0.139289
  23 H :    0.186013
  24 H :    0.147617
  25 H :    0.119871
  26 H :    0.118812
  27 H :    0.120498
  28 H :    0.120357
  29 H :    0.121104
  30 H :    0.120059

  Mayer bond orders larger than 0.100000
B(  0-C ,  1-C ) :   0.9499 B(  0-C , 14-H ) :   0.9844 B(  0-C , 15-H ) :   0.9750
B(  0-C , 16-H ) :   0.9848 B(  1-C ,  2-H ) :   0.9690 B(  1-C ,  3-C ) :   0.9839
B(  1-C ,  9-C ) :   0.9771 B(  3-C ,  4-C ) :   1.0077 B(  3-C , 17-H ) :   0.9663
B(  3-C , 18-H ) :   0.9733 B(  4-C ,  5-C ) :   0.9670 B(  4-C , 19-H ) :   0.9746
B(  4-C , 20-H ) :   0.9661 B(  5-C ,  6-H ) :   0.9538 B(  5-C ,  7-C ) :   0.9713
B(  5-C , 11-C ) :   0.9390 B(  7-C ,  8-H ) :   0.9849 B(  7-C ,  9-C ) :   1.0131
B(  7-C , 10-O ) :   1.0241 B(  9-C , 21-H ) :   0.9586 B(  9-C , 22-H ) :   0.9686
B( 10-O , 23-H ) :   0.8714 B( 11-C , 12-C ) :   0.9521 B( 11-C , 13-C ) :   0.9464
B( 11-C , 24-H ) :   0.9785 B( 12-C , 25-H ) :   0.9848 B( 12-C , 26-H ) :   0.9762
B( 12-C , 27-H ) :   0.9817 B( 13-C , 28-H ) :   0.9757 B( 13-C , 29-H ) :   0.9813
B( 13-C , 30-H ) :   0.9808

FINAL SINGLE POINT ENERGY      -468.384150818582

DIPOLE MOMENT
-------------

Method             : SCF
Type of density    : Electron Density
Multiplicity       :   1
Irrep              :   0
Energy             :  -468.4069571418822875 Eh
Relativity type    :
Basis              : AO
                                X                 Y                 Z
Electronic contribution:      0.481217378      -4.853999262       0.131224914
Nuclear contribution   :      0.274027876       5.047793115      -0.665460501
                        -----------------------------------------
Total Dipole Moment    :      0.755245254       0.193793853      -0.534235587
                        -----------------------------------------
Magnitude (a.u.)       :      0.945176763
Magnitude (Debye)      :      2.402448406

Rotational constants in cm-1:             0.059118             0.023190             0.019093
Rotational constants in MHz :          1772.317870           695.230586           572.398655

                             ****ORCA TERMINATED NORMALLY****
TOTAL RUN TIME: 0 days 0 hours 6 minutes 36 seconds 30 msec
