                         Program Version 6.0.0  -   RELEASE  -
|  1> ! pbe def2-sv(p) def2/J RI DEFGRID1 loosescf d4 GCP(DFT/SV(P)) printgap
|  2> %output
|  3>     printlevel normal
|  4> end
|  5> * xyz 0 1
|  6> C -2.7151220131 0.5980167791 1.2021324111
|  7> C -1.4893153937 0.4648460974 0.3467430528
|  8> C -0.8864377974 1.5145922486 -0.1941605489
|  9> C 0.3279501207 1.4673042508 -1.0664678705
| 10> C 1.0663815824 0.1248168599 -1.0163058172
| 11> H 1.6302155856 0.014497721 -1.9493112874
| 12> C 0.0429987458 -1.0165086766 -0.992312287
| 13> C -0.9497276769 -0.9385510582 0.1662276492
| 14> H -0.4516934023 -1.2426631868 1.102381276
| 15> O -1.9723533624 -1.884685211 -0.1237115182
| 16> C 2.0799517612 0.0321469292 0.103521191
| 17> C 3.2755839692 -0.4887184011 -0.1345303144
| 18> C 1.7275819072 0.5272692232 1.4756293917
| 19> H -2.9366082396 1.6455098553 1.3868313342
| 20> H -2.5691388978 0.09773512 2.1591116845
| 21> H -3.574997745 0.1502408568 0.7049114361
| 22> H -1.2953457609 2.5039961194 -0.0299362767
| 23> H 0.0081424095 1.6544261579 -2.0969323636
| 24> H 1.0098427718 2.2777819888 -0.7967712289
| 25> H -0.5448797027 -0.9831216911 -1.9123376216
| 26> H 0.5530571227 -1.9806788083 -0.9577595794
| 27> H -2.5701101118 -1.9462316432 0.6327853149
| 28> H 4.0218759532 -0.5746489557 0.637467547
| 29> H 3.5564509637 -0.8589786286 -1.1062028592
| 30> H 1.2796893284 -0.2743210783 2.0613501926
| 31> H 2.6235349601 0.854954615 1.9971440395
| 32> H 1.0171327628 1.3464149226 1.4362360704
| 33> *
| 34>
| 35>                          ****END OF INPUT****

CARTESIAN COORDINATES (ANGSTROEM)
---------------------------------
  C     -2.715122    0.598017    1.202132
  C     -1.489315    0.464846    0.346743
  C     -0.886438    1.514592   -0.194161
  C      0.327950    1.467304   -1.066468
  C      1.066382    0.124817   -1.016306
  H      1.630216    0.014498   -1.949311
  C      0.042999   -1.016509   -0.992312
  C     -0.949728   -0.938551    0.166228
  H     -0.451693   -1.242663    1.102381
  O     -1.972353   -1.884685   -0.123712
  C      2.079952    0.032147    0.103521
  C      3.275584   -0.488718   -0.134530
  C      1.727582    0.527269    1.475629
  H     -2.936608    1.645510    1.386831
  H     -2.569139    0.097735    2.159112
  H     -3.574998    0.150241    0.704911
  H     -1.295346    2.503996   -0.029936
  H      0.008142    1.654426   -2.096932
  H      1.009843    2.277782   -0.796771
  H     -0.544880   -0.983122   -1.912338
  H      0.553057   -1.980679   -0.957760
  H     -2.570110   -1.946232    0.632785
  H      4.021876   -0.574649    0.637468
  H      3.556451   -0.858979   -1.106203
  H      1.279689   -0.274321    2.061350
  H      2.623535    0.854955    1.997144
  H      1.017133    1.346415    1.436236

 Total Charge           Charge          ....    0
 Multiplicity           Mult            ....    1
 Number of Electrons    NEL             ....   84
 Basis Dimension        Dim             ....  186

ORBITAL ENERGIES
----------------

  NO   OCC          E(Eh)            E(eV)
   0   2.0000     -18.742337      -510.0049
   1   2.0000      -9.938031      -270.4276
   2   2.0000      -9.897659      -269.3290
   3   2.0000      -9.896829      -269.3064
   4   2.0000      -9.892245      -269.1817
   5   2.0000      -9.889973      -269.1199
   6   2.0000      -9.886273      -269.0192
   7   2.0000      -9.884910      -268.9821
   8   2.0000      -9.880739      -268.8686
   9   2.0000      -9.876514      -268.7536
  10   2.0000      -9.864551      -268.4281
  11   2.0000      -0.918980       -25.0067
  12   2.0000      -0.764932       -20.8149
  13   2.0000      -0.719066       -19.5668
  14   2.0000      -0.679369       -18.4866
  15   2.0000      -0.660735       -17.9795
  16   2.0000      -0.621204       -16.9038
  17   2.0000      -0.602106       -16.3841
  18   2.0000      -0.549688       -14.9578
  19   2.0000      -0.536824       -14.6077
  20   2.0000      -0.484933       -13.1957
  21   2.0000      -0.462253       -12.5785
  22   2.0000      -0.445809       -12.1311
  23   2.0000      -0.425793       -11.5864
  24   2.0000      -0.407143       -11.0789
  25   2.0000      -0.401920       -10.9368
  26   2.0000      -0.383008       -10.4222
  27   2.0000      -0.377807       -10.2806
  28   2.0000      -0.371855       -10.1187
  29   2.0000      -0.354608        -9.6494
  30   2.0000      -0.349561        -9.5120
  31   2.0000      -0.343020        -9.3341
  32   2.0000      -0.336227        -9.1492
  33   2.0000      -0.327781        -8.9194
  34   2.0000      -0.317737        -8.6461
  35   2.0000      -0.298151        -8.1131
  36   2.0000      -0.291771        -7.9395
  37   2.0000      -0.277380        -7.5479
  38   2.0000      -0.262572        -7.1449
  39   2.0000      -0.215190        -5.8556
  40   2.0000      -0.214344        -5.8326
  41   2.0000      -0.206893        -5.6298
  42   0.0000      -0.020666        -0.5624
  43   0.0000      -0.007653        -0.2082
  44   0.0000       0.025448         0.6925
  45   0.0000       0.037295         1.0149
  46   0.0000       0.060341         1.6420

MULLIKEN ATOMIC CHARGES
-----------------------
   0 C :   -0.256101
   1 C :   -0.028864
   2 C :   -0.212472
   3 C :   -0.065070
   4 C :   -0.116354
   5 H :    0.056538
   6 C :   -0.076198
   7 C :    0.052295
   8 H :    0.068744
   9 O :   -0.422536
  10 C :   -0.063502
  11 C :   -0.235342
  12 C :   -0.223164
  13 H :    0.104467
  14 H :    0.101650
  15 H :    0.115176
  16 H :    0.042002
  17 H :    0.097684
  18 H :    0.095211
  19 H :    0.088260
  20 H :    0.081846
  21 H :    0.296310
  22 H :    0.079525
  23 H :    0.084300
  24 H :    0.117859
  25 H :    0.100778
  26 H :    0.116957
Sum of atomic charges:   -0.0000000

LOEWDIN ATOMIC CHARGES
----------------------
   0 C :   -0.331337
   1 C :   -0.081310
   2 C :   -0.148672
   3 C :   -0.212312
   4 C :   -0.127310
   5 H :    0.124518
   6 C :   -0.204805
   7 C :   -0.041108
   8 H :    0.102179
   9 O :   -0.326227
  10 C :   -0.048558
  11 C :   -0.265412
  12 C :   -0.330992
  13 H :    0.127625
  14 H :    0.121803
  15 H :    0.127132
  16 H :    0.115841
  17 H :    0.133095
  18 H :    0.124389
  19 H :    0.124484
  20 H :    0.122227
  21 H :    0.280287
  22 H :    0.114594
  23 H :    0.115579
  24 H :    0.128866
  25 H :    0.126508
  26 H :    0.128914

  Mayer bond orders larger than 0.100000
B(  0-C ,  1-C ) :   1.1079 B(  0-C , 13-H ) :   0.9391 B(  0-C , 14-H ) :   0.9335
B(  0-C , 15-H ) :   0.9237 B(  1-C ,  2-C ) :   1.9202 B(  1-C ,  7-C ) :   0.9601
B(  2-C ,  3-C ) :   1.0556 B(  2-C , 16-H ) :   0.9181 B(  3-C ,  4-C ) :   1.0582
B(  3-C , 17-H ) :   0.8853 B(  3-C , 18-H ) :   0.9104 B(  4-C ,  5-H ) :   0.8665
B(  4-C ,  6-C ) :   1.0590 B(  4-C , 10-C ) :   1.0305 B(  6-C ,  7-C ) :   1.1111
B(  6-C , 19-H ) :   0.9040 B(  6-C , 20-H ) :   0.9037 B(  7-C ,  8-H ) :   0.8734
B(  7-C ,  9-O ) :   1.0716 B(  9-O , 21-H ) :   0.8435 B( 10-C , 11-C ) :   2.0242
B( 10-C , 12-C ) :   1.1273 B( 11-C , 22-H ) :   0.9137 B( 11-C , 23-H ) :   0.9083
B( 12-C , 24-H ) :   0.9181 B( 12-C , 25-H ) :   0.9314 B( 12-C , 26-H ) :   0.9220

Dispersion correction           -0.029644148
FINAL SINGLE POINT ENERGY      -464.788089006254

DIPOLE MOMENT
-------------

Method             : SCF
Type of density    : Electron Density
Multiplicity       :   1
Irrep              :   0
Energy             :  -464.8772653376181552 Eh
Relativity type    :
Basis              : AO
                                X                 Y                 Z
Electronic contribution:     -1.850746409      -2.160997266      -2.564185357
Nuclear contribution   :      1.619268643       2.490948322       3.065001627
                        -----------------------------------------
Total Dipole Moment    :     -0.231477766       0.329951056       0.500816270
                        -----------------------------------------
Magnitude (a.u.)       :      0.642858143
Magnitude (Debye)      :      1.634015542

Rotational constants in cm-1:             0.057999             0.026953             0.024274
Rotational constants in MHz :          1738.766827           808.044018           727.704130

                             ****ORCA TERMINATED NORMALLY****
TOTAL RUN TIME: 0 days 0 hours 0 minutes 12 seconds 563 msec
