                         Program Version 6.0.0  -   RELEASE  -
|  1> ! wb97x-v def2-tzvp def2/J RIJCOSX DEFGRID2 scfconv7 GCP(DFT/TZ) printgap
|  2> %output
|  3>     printlevel normal
|  4> end
|  5> * xyz 0 1
|  6> C 2.899712454736233 -0.07170183060986833 0.009113964640790142
|  7> C 1.401174248141774 0.0007399600843594335 -0.0045085482713194
|  8> C 0.7088520265261389 1.212855456512758 -0.0029398122920399755
|  9> C -0.6779649245947788 1.2113526062760702 -0.0007661923985991439
| 10> C -1.3680314438620182 -0.003349482146893912 -1.3279380801236646e-05
| 11> N -0.7152925857676857 -1.1788395955839812 -0.0046600898604322784
| 12> C 0.6257397172605045 -1.1569669959713174 -0.007630907024205084
| 13> C -2.8673881819955147 -0.028901853332676933 0.0048980185851362715
| 14> H 3.2661741601820444 -0.41511733440923226 0.9831116244581546
| 15> H 3.267818582191179 -0.7775117499812801 -0.7418678457546074
| 16> H 3.341081791426061 0.9079439636240186 -0.18981093836845758
| 17> H 1.2565592455478498 2.1513904837795175 -0.005361319415381124
| 18> H -1.2318034479457312 2.145401281912089 -0.001559055984679378
| 19> H 1.1173297137882903 -2.1295632207608897 -0.014637211417648508
| 20> H -3.2395697970800525 -1.054547260206586 -0.011745553963272088
| 21> H -3.260624225535578 0.4720993428404286 0.8961824994235884
| 22> H -3.26768344376306 0.5041998417703059 -0.8641508686577413
| 23> *
| 24>
| 25>                          ****END OF INPUT****

CARTESIAN COORDINATES (ANGSTROEM)
---------------------------------
  C      2.899712   -0.071702    0.009114
  C      1.401174    0.000740   -0.004509
  C      0.708852    1.212855   -0.002940
  C     -0.677965    1.211353   -0.000766
  C     -1.368031   -0.003349   -0.000013
  N     -0.715293   -1.178840   -0.004660
  C      0.625740   -1.156967   -0.007631
  C     -2.867388   -0.028902    0.004898
  H      3.266174   -0.415117    0.983112
  H      3.267819   -0.777512   -0.741868
  H      3.341082    0.907944   -0.189811
  H      1.256559    2.151390   -0.005361
  H     -1.231803    2.145401   -0.001559
  H      1.117330   -2.129563   -0.014637
  H     -3.239570   -1.054547   -0.011746
  H     -3.260624    0.472099    0.896182
  H     -3.267683    0.504200   -0.864151

 Total Charge           Charge          ....    0
 Multiplicity           Mult            ....    1
 Number of Electrons    NEL             ....   58
 Basis Dimension        Dim             ....  302

ORBITAL ENERGIES
----------------

  NO   OCC          E(Eh)            E(eV)
   0   2.0000     -16.518722      -449.4973
   1   2.0000     -12.087131      -328.9075
   2   2.0000     -12.076970      -328.6311
   3   2.0000     -12.064836      -328.3009
   4   2.0000     -12.061665      -328.2146
   5   2.0000     -12.052528      -327.9660
   6   2.0000     -12.049979      -327.8966
   7   2.0000     -12.038688      -327.5893
   8   2.0000      -1.511997       -41.1435
   9   2.0000      -1.349051       -36.7095
  10   2.0000      -1.315087       -35.7853
  11   2.0000      -1.236398       -33.6441
  12   2.0000      -1.181650       -32.1543
  13   2.0000      -1.140339       -31.0302
  14   2.0000      -1.105254       -30.0755
  15   2.0000      -0.998673       -27.1753
  16   2.0000      -0.956297       -26.0222
  17   2.0000      -0.913155       -24.8482
  18   2.0000      -0.874546       -23.7976
  19   2.0000      -0.868964       -23.6457
  20   2.0000      -0.856229       -23.2992
  21   2.0000      -0.841130       -22.8883
  22   2.0000      -0.840052       -22.8590
  23   2.0000      -0.821871       -22.3643
  24   2.0000      -0.816342       -22.2138
  25   2.0000      -0.797213       -21.6933
  26   2.0000      -0.755517       -20.5587
  27   2.0000      -0.690711       -18.7952
  28   2.0000      -0.638421       -17.3723
  29   0.0000      -0.285869        -7.7789
  30   0.0000      -0.244416        -6.6509
  31   0.0000      -0.096903        -2.6369
  32   0.0000      -0.049775        -1.3545
  33   0.0000      -0.041571        -1.1312

MULLIKEN ATOMIC CHARGES
-----------------------
   0 C :   -0.354874
   1 C :    0.137819
   2 C :   -0.180479
   3 C :   -0.164211
   4 C :    0.165710
   5 N :   -0.233710
   6 C :   -0.104960
   7 C :   -0.370647
   8 H :    0.127739
   9 H :    0.126374
  10 H :    0.116686
  11 H :    0.122096
  12 H :    0.120553
  13 H :    0.116812
  14 H :    0.135711
  15 H :    0.119723
  16 H :    0.119659
Sum of atomic charges:    0.0000000

LOEWDIN ATOMIC CHARGES
----------------------
   0 C :   -0.252501
   1 C :   -0.187911
   2 C :   -0.098056
   3 C :   -0.125868
   4 C :   -0.240008
   5 N :    0.142370
   6 C :   -0.174442
   7 C :   -0.256570
   8 H :    0.128838
   9 H :    0.128226
  10 H :    0.124833
  11 H :    0.145127
  12 H :    0.145432
  13 H :    0.137089
  14 H :    0.128841
  15 H :    0.127404
  16 H :    0.127197

  Mayer bond orders larger than 0.100000
B(  0-C ,  1-C ) :   0.9188 B(  0-C ,  8-H ) :   0.9669 B(  0-C ,  9-H ) :   0.9818
B(  0-C , 10-H ) :   0.9944 B(  1-C ,  2-C ) :   1.4067 B(  1-C ,  6-C ) :   1.3609
B(  2-C ,  3-C ) :   1.4742 B(  2-C , 11-H ) :   0.9628 B(  3-C ,  4-C ) :   1.3838
B(  3-C , 12-H ) :   0.9667 B(  4-C ,  5-N ) :   1.4865 B(  4-C ,  7-C ) :   0.9269
B(  5-N ,  6-C ) :   1.5294 B(  6-C , 13-H ) :   0.9995 B(  7-C , 14-H ) :   0.9935
B(  7-C , 15-H ) :   0.9728 B(  7-C , 16-H ) :   0.9744

FINAL SINGLE POINT ENERGY      -326.931438878418

DIPOLE MOMENT
-------------

Method             : SCF
Type of density    : Electron Density
Multiplicity       :   1
Irrep              :   0
Energy             :  -326.9411577013179340 Eh
Relativity type    :
Basis              : AO
                                X                 Y                 Z
Electronic contribution:     -0.755528456      -1.036760526      -0.039196346
Nuclear contribution   :      1.174949218       1.742406916       0.049943447
                        -----------------------------------------
Total Dipole Moment    :      0.419420761       0.705646390       0.010747101
                        -----------------------------------------
Magnitude (a.u.)       :      0.820954385
Magnitude (Debye)      :      2.086700215

Rotational constants in cm-1:             0.184999             0.049353             0.039532
Rotational constants in MHz :          5546.126353          1479.570430          1185.129622

                             ****ORCA TERMINATED NORMALLY****
TOTAL RUN TIME: 0 days 0 hours 2 minutes 29 seconds 833 msec
