                         Program Version 6.0.0  -   RELEASE  -
|  1> ! wb97x-v def2-tzvp def2/J RIJCOSX DEFGRID2 scfconv7 GCP(DFT/TZ) printgap
|  2> %output
|  3>     printlevel normal
|  4> end
|  5> %cpcm
|  6>     smd true
|  7>     smdsolvent "water"
|  8> end
|  9> * xyz 0 1
| 10> C 2.899712454736233 -0.07170183060986833 0.009113964640790142
| 11> C 1.401174248141774 0.0007399600843594335 -0.0045085482713194
| 12> C 0.7088520265261389 1.212855456512758 -0.0029398122920399755
| 13> C -0.6779649245947788 1.2113526062760702 -0.0007661923985991439
| 14> C -1.3680314438620182 -0.003349482146893912 -1.3279380801236646e-05
| 15> N -0.7152925857676857 -1.1788395955839812 -0.0046600898604322784
| 16> C 0.6257397172605045 -1.1569669959713174 -0.007630907024205084
| 17> C -2.8673881819955147 -0.028901853332676933 0.0048980185851362715
| 18> H 3.2661741601820444 -0.41511733440923226 0.9831116244581546
| 19> H 3.267818582191179 -0.7775117499812801 -0.7418678457546074
| 20> H 3.341081791426061 0.9079439636240186 -0.18981093836845758
| 21> H 1.2565592455478498 2.1513904837795175 -0.005361319415381124
| 22> H -1.2318034479457312 2.145401281912089 -0.001559055984679378
| 23> H 1.1173297137882903 -2.1295632207608897 -0.014637211417648508
| 24> H -3.2395697970800525 -1.054547260206586 -0.011745553963272088
| 25> H -3.260624225535578 0.4720993428404286 0.8961824994235884
| 26> H -3.26768344376306 0.5041998417703059 -0.8641508686577413
| 27> *
| 28>
| 29>                          ****END OF INPUT****

CARTESIAN COORDINATES (ANGSTROEM)
---------------------------------
  C      2.899712   -0.071702    0.009114
  C      1.401174    0.000740   -0.004509
  C      0.708852    1.212855   -0.002940
  C     -0.677965    1.211353   -0.000766
  C     -1.368031   -0.003349   -0.000013
  N     -0.715293   -1.178840   -0.004660
  C      0.625740   -1.156967   -0.007631
  C     -2.867388   -0.028902    0.004898
  H      3.266174   -0.415117    0.983112
  H      3.267819   -0.777512   -0.741868
  H      3.341082    0.907944   -0.189811
  H      1.256559    2.151390   -0.005361
  H     -1.231803    2.145401   -0.001559
  H      1.117330   -2.129563   -0.014637
  H     -3.239570   -1.054547   -0.011746
  H     -3.260624    0.472099    0.896182
  H     -3.267683    0.504200   -0.864151

 Total Charge           Charge          ....    0
 Multiplicity           Mult            ....    1
 Number of Electrons    NEL             ....   58
 Basis Dimension        Dim             ....  302

ORBITAL ENERGIES
----------------

  NO   OCC          E(Eh)            E(eV)
   0   2.0000     -16.523419      -449.6251
   1   2.0000     -12.086858      -328.9001
   2   2.0000     -12.075527      -328.5918
   3   2.0000     -12.059658      -328.1600
   4   2.0000     -12.057576      -328.1033
   5   2.0000     -12.047767      -327.8364
   6   2.0000     -12.035929      -327.5143
   7   2.0000     -12.033149      -327.4386
   8   2.0000      -1.515816       -41.2474
   9   2.0000      -1.345375       -36.6095
  10   2.0000      -1.313178       -35.7334
  11   2.0000      -1.229925       -33.4680
  12   2.0000      -1.176146       -32.0046
  13   2.0000      -1.136666       -30.9303
  14   2.0000      -1.102362       -29.9968
  15   2.0000      -0.995871       -27.0990
  16   2.0000      -0.951611       -25.8947
  17   2.0000      -0.906176       -24.6583
  18   2.0000      -0.869139       -23.6505
  19   2.0000      -0.864996       -23.5377
  20   2.0000      -0.854027       -23.2393
  21   2.0000      -0.833349       -22.6766
  22   2.0000      -0.829560       -22.5735
  23   2.0000      -0.814312       -22.1586
  24   2.0000      -0.808905       -22.0114
  25   2.0000      -0.795703       -21.6522
  26   2.0000      -0.758260       -20.6333
  27   2.0000      -0.689523       -18.7629
  28   2.0000      -0.636397       -17.3173
  29   0.0000      -0.285768        -7.7762
  30   0.0000      -0.242634        -6.6024
  31   0.0000      -0.093832        -2.5533
  32   0.0000      -0.042671        -1.1611
  33   0.0000      -0.035877        -0.9763

MULLIKEN ATOMIC CHARGES
-----------------------
   0 C :   -0.387469
   1 C :    0.103342
   2 C :   -0.206190
   3 C :   -0.199925
   4 C :    0.175080
   5 N :   -0.313201
   6 C :   -0.111713
   7 C :   -0.400220
   8 H :    0.143149
   9 H :    0.143894
  10 H :    0.143424
  11 H :    0.167924
  12 H :    0.164857
  13 H :    0.155068
  14 H :    0.133789
  15 H :    0.144007
  16 H :    0.144182
Sum of atomic charges:    0.0000000

LOEWDIN ATOMIC CHARGES
----------------------
   0 C :   -0.252146
   1 C :   -0.189062
   2 C :   -0.092546
   3 C :   -0.124958
   4 C :   -0.248148
   5 N :    0.100039
   6 C :   -0.184643
   7 C :   -0.259927
   8 H :    0.133441
   9 H :    0.132859
  10 H :    0.131304
  11 H :    0.157625
  12 H :    0.156833
  13 H :    0.144766
  14 H :    0.125842
  15 H :    0.134412
  16 H :    0.134309

  Mayer bond orders larger than 0.100000
B(  0-C ,  1-C ) :   0.9263 B(  0-C ,  8-H ) :   0.9615 B(  0-C ,  9-H ) :   0.9756
B(  0-C , 10-H ) :   0.9892 B(  1-C ,  2-C ) :   1.3926 B(  1-C ,  6-C ) :   1.3844
B(  2-C ,  3-C ) :   1.4557 B(  2-C , 11-H ) :   0.9647 B(  3-C ,  4-C ) :   1.3876
B(  3-C , 12-H ) :   0.9674 B(  4-C ,  5-N ) :   1.4669 B(  4-C ,  7-C ) :   0.9355
B(  5-N ,  6-C ) :   1.5141 B(  6-C , 13-H ) :   0.9775 B(  7-C , 14-H ) :   0.9908
B(  7-C , 15-H ) :   0.9659 B(  7-C , 16-H ) :   0.9672

FINAL SINGLE POINT ENERGY      -326.937748722767

DIPOLE MOMENT
-------------

Method             : SCF
Type of density    : Electron Density
Multiplicity       :   1
Irrep              :   0
Energy             :  -326.9474675456673367 Eh
Relativity type    :
Basis              : AO
                                X                 Y                 Z
Electronic contribution:     -0.559156440      -0.651839887      -0.035644831
Nuclear contribution   :      1.174949218       1.742406916       0.049943447
                        -----------------------------------------
Total Dipole Moment    :      0.615792778       1.090567029       0.014298616
                        -----------------------------------------
Magnitude (a.u.)       :      1.252494168
Magnitude (Debye)      :      3.183587170

Rotational constants in cm-1:             0.184999             0.049353             0.039532
Rotational constants in MHz :          5546.126353          1479.570430          1185.129622

                             ****ORCA TERMINATED NORMALLY****
TOTAL RUN TIME: 0 days 0 hours 2 minutes 27 seconds 345 msec
