                         Program Version 6.0.0  -   RELEASE  -
|  1> ! pbe def2-sv(p) def2/J RI DEFGRID1 loosescf d4 GCP(DFT/SV(P)) printgap
|  2> %output
|  3>     printlevel normal
|  4> end
|  5> * xyz 0 1
|  6> C -3.5588559615 0.3680370423 -0.2498570724
|  7> O -2.1789369326 0.4483069031 -0.6193100388
|  8> C -1.3070258322 -0.2433278717 0.1077181271
|  9> O -1.6333221773 -0.9380197241 1.0472205898
| 10> C 0.1089988022 -0.0141201829 -0.3591849441
| 11> C 0.9545782021 -1.2768657666 -0.189734872
| 12> C 2.4032792117 -1.0081694167 -0.5837407092
| 13> C 2.9837772921 0.131457084 0.2476669613
| 14> C 2.1453507701 1.393763802 0.0735584246
| 15> C 0.6971943981 1.1345682393 0.4767586432
| 16> H -3.698269057 0.7659583758 0.7558210813
| 17> H -3.8890183941 -0.6711378872 -0.2690743248
| 18> H -4.093391664 0.9629160431 -0.9834240245
| 19> H 0.0758444394 0.2898384112 -1.4087443643
| 20> H 0.9001691753 -1.5946859547 0.853556454
| 21> H 0.5398330257 -2.0799099073 -0.8023999905
| 22> H 2.9929898043 -1.9144099284 -0.4390816933
| 23> H 2.4458603253 -0.7436224276 -1.6423014606
| 24> H 2.9904537116 -0.15643706 1.300894623
| 25> H 4.0137523384 0.3251632668 -0.0555894276
| 26> H 2.5517085244 2.2001946403 0.6856726419
| 27> H 2.1783165297 1.7114194597 -0.9702965351
| 28> H 0.6505330819 0.8593896452 1.5330543079
| 29> H 0.0975387718 2.0352602034 0.3314039298
| 30> *
| 31>
| 32>                          ****END OF INPUT****

CARTESIAN COORDINATES (ANGSTROEM)
---------------------------------
  C     -3.558856    0.368037   -0.249857
  O     -2.178937    0.448307   -0.619310
  C     -1.307026   -0.243328    0.107718
  O     -1.633322   -0.938020    1.047221
  C      0.108999   -0.014120   -0.359185
  C      0.954578   -1.276866   -0.189735
  C      2.403279   -1.008169   -0.583741
  C      2.983777    0.131457    0.247667
  C      2.145351    1.393764    0.073558
  C      0.697194    1.134568    0.476759
  H     -3.698269    0.765958    0.755821
  H     -3.889018   -0.671138   -0.269074
  H     -4.093392    0.962916   -0.983424
  H      0.075844    0.289838   -1.408744
  H      0.900169   -1.594686    0.853556
  H      0.539833   -2.079910   -0.802400
  H      2.992990   -1.914410   -0.439082
  H      2.445860   -0.743622   -1.642301
  H      2.990454   -0.156437    1.300895
  H      4.013752    0.325163   -0.055589
  H      2.551709    2.200195    0.685673
  H      2.178317    1.711419   -0.970297
  H      0.650533    0.859390    1.533054
  H      0.097539    2.035260    0.331404

 Total Charge           Charge          ....    0
 Multiplicity           Mult            ....    1
 Number of Electrons    NEL             ....   78
 Basis Dimension        Dim             ....  168

ORBITAL ENERGIES
----------------

  NO   OCC          E(Eh)            E(eV)
   0   2.0000     -18.795970      -511.4643
   1   2.0000     -18.732156      -509.7279
   2   2.0000      -9.999750      -272.1070
   3   2.0000      -9.939723      -270.4736
   4   2.0000      -9.901257      -269.4269
   5   2.0000      -9.890669      -269.1388
   6   2.0000      -9.885624      -269.0015
   7   2.0000      -9.883272      -268.9375
   8   2.0000      -9.883200      -268.9355
   9   2.0000      -9.883019      -268.9306
  10   2.0000      -1.002830       -27.2884
  11   2.0000      -0.907119       -24.6840
  12   2.0000      -0.762309       -20.7435
  13   2.0000      -0.693838       -18.8803
  14   2.0000      -0.669114       -18.2075
  15   2.0000      -0.651244       -17.7213
  16   2.0000      -0.559146       -15.2151
  17   2.0000      -0.545720       -14.8498
  18   2.0000      -0.508659       -13.8413
  19   2.0000      -0.491959       -13.3869
  20   2.0000      -0.455817       -12.4034
  21   2.0000      -0.432259       -11.7624
  22   2.0000      -0.420532       -11.4433
  23   2.0000      -0.413580       -11.2541
  24   2.0000      -0.396070       -10.7776
  25   2.0000      -0.391781       -10.6609
  26   2.0000      -0.376613       -10.2482
  27   2.0000      -0.360898        -9.8205
  28   2.0000      -0.345570        -9.4034
  29   2.0000      -0.337974        -9.1967
  30   2.0000      -0.320880        -8.7316
  31   2.0000      -0.308651        -8.3988
  32   2.0000      -0.303828        -8.2676
  33   2.0000      -0.303124        -8.2484
  34   2.0000      -0.283961        -7.7270
  35   2.0000      -0.268531        -7.3071
  36   2.0000      -0.262142        -7.1332
  37   2.0000      -0.255270        -6.9462
  38   2.0000      -0.214959        -5.8493
  39   0.0000      -0.016430        -0.4471
  40   0.0000       0.034625         0.9422
  41   0.0000       0.051102         1.3906
  42   0.0000       0.056109         1.5268
  43   0.0000       0.071113         1.9351

MULLIKEN ATOMIC CHARGES
-----------------------
   0 C :   -0.106290
   1 O :   -0.240166
   2 C :    0.164286
   3 O :   -0.212603
   4 C :   -0.183956
   5 C :   -0.125395
   6 C :   -0.129767
   7 C :   -0.165121
   8 C :   -0.116227
   9 C :   -0.153589
  10 H :    0.117510
  11 H :    0.119486
  12 H :    0.120400
  13 H :    0.072680
  14 H :    0.091800
  15 H :    0.086125
  16 H :    0.086586
  17 H :    0.071378
  18 H :    0.077973
  19 H :    0.085738
  20 H :    0.087170
  21 H :    0.073285
  22 H :    0.089077
  23 H :    0.089619
Sum of atomic charges:   -0.0000000

LOEWDIN ATOMIC CHARGES
----------------------
   0 C :   -0.203674
   1 O :   -0.074026
   2 C :    0.046114
   3 O :   -0.168290
   4 C :   -0.165368
   5 C :   -0.212911
   6 C :   -0.225173
   7 C :   -0.227329
   8 C :   -0.224725
   9 C :   -0.208398
  10 H :    0.118991
  11 H :    0.119962
  12 H :    0.120009
  13 H :    0.125831
  14 H :    0.123054
  15 H :    0.118939
  16 H :    0.118066
  17 H :    0.113513
  18 H :    0.115862
  19 H :    0.116532
  20 H :    0.118227
  21 H :    0.114904
  22 H :    0.121379
  23 H :    0.118511

  Mayer bond orders larger than 0.100000
B(  0-C ,  1-O ) :   0.9384 B(  0-C , 10-H ) :   0.9528 B(  0-C , 11-H ) :   0.9509
B(  0-C , 12-H ) :   0.9594 B(  1-O ,  2-C ) :   1.2252 B(  2-C ,  3-O ) :   2.0530
B(  2-C ,  4-C ) :   0.9448 B(  4-C ,  5-C ) :   1.0793 B(  4-C ,  9-C ) :   1.0828
B(  4-C , 13-H ) :   0.8773 B(  5-C ,  6-C ) :   1.1378 B(  5-C , 14-H ) :   0.9003
B(  5-C , 15-H ) :   0.9213 B(  6-C ,  7-C ) :   1.1352 B(  6-C , 16-H ) :   0.9195
B(  6-C , 17-H ) :   0.9106 B(  7-C ,  8-C ) :   1.1360 B(  7-C , 18-H ) :   0.9152
B(  7-C , 19-H ) :   0.9197 B(  8-C ,  9-C ) :   1.1367 B(  8-C , 20-H ) :   0.9176
B(  8-C , 21-H ) :   0.9111 B(  9-C , 22-H ) :   0.9080 B(  9-C , 23-H ) :   0.9150

Dispersion correction           -0.022535623
FINAL SINGLE POINT ENERGY      -462.708137415002

DIPOLE MOMENT
-------------

Method             : SCF
Type of density    : Electron Density
Multiplicity       :   1
Irrep              :   0
Energy             :  -462.7959446148693132 Eh
Relativity type    :
Basis              : AO
                                X                 Y                 Z
Electronic contribution:     -7.273261929      -1.387545589       0.562676558
Nuclear contribution   :      7.220203468       1.859632786      -1.035498527
                        -----------------------------------------
Total Dipole Moment    :     -0.053058461       0.472087197      -0.472821970
                        -----------------------------------------
Magnitude (a.u.)       :      0.670255277
Magnitude (Debye)      :      1.703653523

Rotational constants in cm-1:             0.102629             0.024551             0.022314
Rotational constants in MHz :          3076.738569           736.017794           668.952791

                             ****ORCA TERMINATED NORMALLY****
TOTAL RUN TIME: 0 days 0 hours 0 minutes 11 seconds 961 msec
