                         Program Version 6.0.0  -   RELEASE  -
|  1> ! wb97x-v def2-tzvp def2/J RIJCOSX DEFGRID2 scfconv7 GCP(DFT/TZ) printgap
|  2> %output
|  3>     printlevel normal
|  4> end
|  5> * xyz 0 1
|  6> N -3.8934225631333126e-05 -2.3287524222240574e-05 -0.08493091680036768
|  7> H -0.6926613139148247 0.6248656754684168 0.31563415140581486
|  8> H 0.8874414517591824 0.28733835877911057 0.31567408791590135
|  9> H -0.19482520746558635 -0.9123559168413824 0.31555345465293855
| 10> *
| 11>
| 12>                          ****END OF INPUT****

CARTESIAN COORDINATES (ANGSTROEM)
---------------------------------
  N     -0.000039   -0.000023   -0.084931
  H     -0.692661    0.624866    0.315634
  H      0.887441    0.287338    0.315674
  H     -0.194825   -0.912356    0.315553

 Total Charge           Charge          ....    0
 Multiplicity           Mult            ....    1
 Number of Electrons    NEL             ....   10
 Basis Dimension        Dim             ....   49

ORBITAL ENERGIES
----------------

  NO   OCC          E(Eh)            E(eV)
   0   2.0000     -16.502897      -449.0667
   1   2.0000      -1.416551       -38.5463
   2   2.0000      -0.936948       -25.4957
   3   2.0000      -0.936915       -25.4948
   4   2.0000      -0.748165       -20.3586
   5   0.0000      -0.025192        -0.6855
   6   0.0000       0.035001         0.9524
   7   0.0000       0.035006         0.9526
   8   0.0000       0.257854         7.0166
   9   0.0000       0.257866         7.0169

MULLIKEN ATOMIC CHARGES
-----------------------
   0 N :   -0.668557
   1 H :    0.222838
   2 H :    0.222866
   3 H :    0.222853
Sum of atomic charges:    0.0000000

LOEWDIN ATOMIC CHARGES
----------------------
   0 N :   -0.388235
   1 H :    0.129409
   2 H :    0.129415
   3 H :    0.129411

  Mayer bond orders larger than 0.100000
B(  0-N ,  1-H ) :   0.9504 B(  0-N ,  2-H ) :   0.9504 B(  0-N ,  3-H ) :   0.9504

FINAL SINGLE POINT ENERGY       -56.557216009234

DIPOLE MOMENT
-------------

Method             : SCF
Type of density    : Electron Density
Multiplicity       :   1
Irrep              :   0
Energy             :   -56.5597777439338856 Eh
Relativity type    :
Basis              : AO
                                X                 Y                 Z
Electronic contribution:     -0.000043946       0.000037572      -0.223005103
Nuclear contribution   :      0.000055325      -0.000063260       0.926799105
                        -----------------------------------------
Total Dipole Moment    :      0.000011379      -0.000025687       0.703794002
                        -----------------------------------------
Magnitude (a.u.)       :      0.703794003
Magnitude (Debye)      :      1.788902189

Rotational constants in cm-1:             9.831111             9.829989             6.405882
Rotational constants in MHz :        294729.288243        294695.642796        192043.521411

                             ****ORCA TERMINATED NORMALLY****
TOTAL RUN TIME: 0 days 0 hours 0 minutes 4 seconds 835 msec
