                         Program Version 6.0.0  -   RELEASE  -
|  1> ! wb97x-v def2-tzvp def2/J RIJCOSX DEFGRID2 scfconv7 GCP(DFT/TZ) printgap
|  2> %output
|  3>     printlevel normal
|  4> end
|  5> %cpcm
|  6>     smd true
|  7>     smdsolvent "water"
|  8> end
|  9> * xyz 0 1
| 10> N -3.8934225631333126e-05 -2.3287524222240574e-05 -0.08493091680036768
| 11> H -0.6926613139148247 0.6248656754684168 0.31563415140581486
| 12> H 0.8874414517591824 0.28733835877911057 0.31567408791590135
| 13> H -0.19482520746558635 -0.9123559168413824 0.31555345465293855
| 14> *
| 15>
| 16>                          ****END OF INPUT****

CARTESIAN COORDINATES (ANGSTROEM)
---------------------------------
  N     -0.000039   -0.000023   -0.084931
  H     -0.692661    0.624866    0.315634
  H      0.887441    0.287338    0.315674
  H     -0.194825   -0.912356    0.315553

 Total Charge           Charge          ....    0
 Multiplicity           Mult            ....    1
 Number of Electrons    NEL             ....   10
 Basis Dimension        Dim             ....   49

ORBITAL ENERGIES
----------------

  NO   OCC          E(Eh)            E(eV)
   0   2.0000     -16.496146      -448.8829
   1   2.0000      -1.408952       -38.3395
   2   2.0000      -0.929582       -25.2952
   3   2.0000      -0.929559       -25.2946
   4   2.0000      -0.747029       -20.3277
   5   0.0000      -0.007337        -0.1996
   6   0.0000       0.053969         1.4686
   7   0.0000       0.054011         1.4697
   8   0.0000       0.252621         6.8742
   9   0.0000       0.260288         7.0828

MULLIKEN ATOMIC CHARGES
-----------------------
   0 N :   -0.782800
   1 H :    0.261021
   2 H :    0.260871
   3 H :    0.260907
Sum of atomic charges:   -0.0000000

LOEWDIN ATOMIC CHARGES
----------------------
   0 N :   -0.422714
   1 H :    0.140934
   2 H :    0.140884
   3 H :    0.140895

  Mayer bond orders larger than 0.100000
B(  0-N ,  1-H ) :   0.9336 B(  0-N ,  2-H ) :   0.9337 B(  0-N ,  3-H ) :   0.9337

FINAL SINGLE POINT ENERGY       -56.563236458681

DIPOLE MOMENT
-------------

Method             : SCF
Type of density    : Electron Density
Multiplicity       :   1
Irrep              :   0
Energy             :   -56.5657981933805871 Eh
Relativity type    :
Basis              : AO
                                X                 Y                 Z
Electronic contribution:     -0.000203209       0.000119677      -0.067568552
Nuclear contribution   :      0.000055325      -0.000063260       0.926799105
                        -----------------------------------------
Total Dipole Moment    :     -0.000147883       0.000056417       0.859230553
                        -----------------------------------------
Magnitude (a.u.)       :      0.859230568
Magnitude (Debye)      :      2.183990539

Rotational constants in cm-1:             9.831111             9.829989             6.405882
Rotational constants in MHz :        294729.288243        294695.642796        192043.521411

                             ****ORCA TERMINATED NORMALLY****
TOTAL RUN TIME: 0 days 0 hours 0 minutes 5 seconds 57 msec
