                         Program Version 6.0.0  -   RELEASE  -
|  1> ! wb97x-v def2-tzvp def2/J RIJCOSX DEFGRID2 scfconv7 GCP(DFT/TZ) printgap
|  2> %output
|  3>     printlevel normal
|  4> end
|  5> * xyz 0 1
|  6> C -1.234845214179993 4.417524421946346e-05 0.00013402346855348699
|  7> C -0.5678004162009005 -1.2130274201758533 -0.07099828707179194
|  8> C 0.8296973317801706 -1.2151105390349874 -0.07292743848618898
|  9> C 1.5241413180316832 -0.00015989526081552978 -0.00011383353320465092
| 10> C 0.8299085002338444 1.2148980177002822 0.07295559966517311
| 11> C -0.5675955614320455 1.213033462196195 0.07124955965369846
| 12> Cl -1.472534201188864 2.680602773811356 0.16433680886166613
| 13> Cl 1.6849395826283966 2.7082703440659515 0.16531563844713415
| 14> Cl 3.248445427304695 -0.0003152321645316079 -0.00020997360926778115
| 15> Cl 1.6844760132760928 -2.7086223993804057 -0.16544692694946667
| 16> Cl -1.4730367461490708 -2.680454733746872 -0.16384441527569898
| 17> N -2.7153436221264386 0.00019380437777525615 -0.00012925309626061516
| 18> O -3.263599589806286 -0.13679955889097384 1.0796908243042822
| 19> O -3.2632009131342485 0.13788753767316478 -1.0799931169112396
| 20> *
| 21>
| 22>                          ****END OF INPUT****

CARTESIAN COORDINATES (ANGSTROEM)
---------------------------------
  C     -1.234845    0.000044    0.000134
  C     -0.567800   -1.213027   -0.070998
  C      0.829697   -1.215111   -0.072927
  C      1.524141   -0.000160   -0.000114
  C      0.829909    1.214898    0.072956
  C     -0.567596    1.213033    0.071250
  Cl    -1.472534    2.680603    0.164337
  Cl     1.684940    2.708270    0.165316
  Cl     3.248445   -0.000315   -0.000210
  Cl     1.684476   -2.708622   -0.165447
  Cl    -1.473037   -2.680455   -0.163844
  N     -2.715344    0.000194   -0.000129
  O     -3.263600   -0.136800    1.079691
  O     -3.263201    0.137888   -1.079993

 Total Charge           Charge          ....    0
 Multiplicity           Mult            ....    1
 Number of Electrons    NEL             ....  144
 Basis Dimension        Dim             ....  464

ORBITAL ENERGIES
----------------

  NO   OCC          E(Eh)            E(eV)
   0   2.0000    -107.189385     -2916.7714
   1   2.0000    -107.189375     -2916.7712
   2   2.0000    -107.185908     -2916.6768
   3   2.0000    -107.185907     -2916.6768
   4   2.0000    -107.185728     -2916.6719
   5   2.0000     -21.738262      -591.5282
   6   2.0000     -21.738144      -591.5250
   7   2.0000     -16.802816      -457.2279
   8   2.0000     -12.181606      -331.4783
   9   2.0000     -12.181297      -331.4699
  10   2.0000     -12.180148      -331.4387
  11   2.0000     -12.177452      -331.3653
  12   2.0000     -12.176346      -331.3352
  13   2.0000     -12.166849      -331.0768
  14   2.0000     -11.342272      -308.6389
  15   2.0000     -11.342229      -308.6377
  16   2.0000     -11.338906      -308.5473
  17   2.0000     -11.338898      -308.5471
  18   2.0000     -11.338746      -308.5430
  19   2.0000      -9.134266      -248.5560
  20   2.0000      -9.133834      -248.5443
  21   2.0000      -9.131122      -248.4705
  22   2.0000      -9.131028      -248.4679
  23   2.0000      -9.131024      -248.4678
  24   2.0000      -9.130963      -248.4661
  25   2.0000      -9.130850      -248.4631
  26   2.0000      -9.130783      -248.4612
  27   2.0000      -9.129866      -248.4363
  28   2.0000      -9.128163      -248.3900
  29   2.0000      -9.127749      -248.3787
  30   2.0000      -9.127597      -248.3745
  31   2.0000      -9.127479      -248.3713
  32   2.0000      -9.127407      -248.3694
  33   2.0000      -9.126838      -248.3539
  34   2.0000      -1.938358       -52.7454
  35   2.0000      -1.786086       -48.6019
  36   2.0000      -1.529036       -41.6072
  37   2.0000      -1.490035       -40.5459
  38   2.0000      -1.484553       -40.3967
  39   2.0000      -1.456994       -39.6468
  40   2.0000      -1.448603       -39.4185
  41   2.0000      -1.425990       -38.8032
  42   2.0000      -1.379907       -37.5492
  43   2.0000      -1.316587       -35.8262
  44   2.0000      -1.296419       -35.2774
  45   2.0000      -1.211118       -32.9562
  46   2.0000      -1.184075       -32.2203
  47   2.0000      -1.169596       -31.8263
  48   2.0000      -1.140710       -31.0403
  49   2.0000      -1.114509       -30.3273
  50   2.0000      -1.066194       -29.0126
  51   2.0000      -1.030203       -28.0332
  52   2.0000      -1.001688       -27.2573
  53   2.0000      -0.985359       -26.8130
  54   2.0000      -0.965328       -26.2679
  55   2.0000      -0.950089       -25.8532
  56   2.0000      -0.948752       -25.8169
  57   2.0000      -0.924867       -25.1669
  58   2.0000      -0.922001       -25.0889
  59   2.0000      -0.916278       -24.9332
  60   2.0000      -0.873527       -23.7699
  61   2.0000      -0.863541       -23.4981
  62   2.0000      -0.845237       -23.0001
  63   2.0000      -0.844964       -22.9926
  64   2.0000      -0.842032       -22.9129
  65   2.0000      -0.839976       -22.8569
  66   2.0000      -0.838749       -22.8235
  67   2.0000      -0.834008       -22.6945
  68   2.0000      -0.823790       -22.4165
  69   2.0000      -0.800115       -21.7722
  70   2.0000      -0.721755       -19.6400
  71   2.0000      -0.710271       -19.3275
  72   0.0000      -0.509662       -13.8686
  73   0.0000      -0.382558       -10.4099
  74   0.0000      -0.349419        -9.5082
  75   0.0000      -0.344977        -9.3873
  76   0.0000      -0.309909        -8.4331

MULLIKEN ATOMIC CHARGES
-----------------------
   0 C :    0.194765
   1 C :   -0.106648
   2 C :    0.091123
   3 C :   -0.044750
   4 C :    0.091009
   5 C :   -0.106545
   6 Cl:    0.009018
   7 Cl:   -0.003227
   8 Cl:   -0.001743
   9 Cl:   -0.003253
  10 Cl:    0.008998
  11 N :    0.383169
  12 O :   -0.255968
  13 O :   -0.255946
Sum of atomic charges:    0.0000000

LOEWDIN ATOMIC CHARGES
----------------------
   0 C :   -0.161481
   1 C :   -0.413065
   2 C :   -0.442549
   3 C :   -0.437658
   4 C :   -0.442554
   5 C :   -0.413071
   6 Cl:    0.472954
   7 Cl:    0.459714
   8 Cl:    0.459127
   9 Cl:    0.459706
  10 Cl:    0.472925
  11 N :   -0.039156
  12 O :    0.012511
  13 O :    0.012596

  Mayer bond orders larger than 0.100000
B(  0-C ,  1-C ) :   1.2953 B(  0-C ,  5-C ) :   1.2954 B(  0-C , 11-N ) :   0.9215
B(  1-C ,  2-C ) :   1.3396 B(  1-C , 10-Cl) :   1.2470 B(  2-C ,  3-C ) :   1.3193
B(  2-C ,  9-Cl) :   1.2258 B(  3-C ,  4-C ) :   1.3193 B(  3-C ,  8-Cl) :   1.2409
B(  4-C ,  5-C ) :   1.3398 B(  4-C ,  7-Cl) :   1.2259 B(  5-C ,  6-Cl) :   1.2469
B( 11-N , 12-O ) :   1.6598 B( 11-N , 13-O ) :   1.6600 B( 12-O , 13-O ) :   0.2278

FINAL SINGLE POINT ENERGY     -2734.476858199431

DIPOLE MOMENT
-------------

Method             : SCF
Type of density    : Electron Density
Multiplicity       :   1
Irrep              :   0
Energy             : -2734.4850567480311838 Eh
Relativity type    :
Basis              : AO
                                X                 Y                 Z
Electronic contribution:      6.178252210      -0.000930099       0.000157536
Nuclear contribution   :     -5.096770971       0.000665323      -0.000155815
                        -----------------------------------------
Total Dipole Moment    :      1.081481239      -0.000264776       0.000001721
                        -----------------------------------------
Magnitude (a.u.)       :      1.081481272
Magnitude (Debye)      :      2.748906934

Rotational constants in cm-1:             0.014756             0.013155             0.007178
Rotational constants in MHz :           442.367649           394.385220           215.203030

                             ****ORCA TERMINATED NORMALLY****
TOTAL RUN TIME: 0 days 0 hours 5 minutes 17 seconds 501 msec
