                         Program Version 6.0.0  -   RELEASE  -
|  1> ! wb97x-v def2-tzvp def2/J RIJCOSX DEFGRID2 scfconv7 GCP(DFT/TZ) printgap
|  2> %output
|  3>     printlevel normal
|  4> end
|  5> %cpcm
|  6>     smd true
|  7>     smdsolvent "water"
|  8> end
|  9> * xyz 0 1
| 10> C -1.234845214179993 4.417524421946346e-05 0.00013402346855348699
| 11> C -0.5678004162009005 -1.2130274201758533 -0.07099828707179194
| 12> C 0.8296973317801706 -1.2151105390349874 -0.07292743848618898
| 13> C 1.5241413180316832 -0.00015989526081552978 -0.00011383353320465092
| 14> C 0.8299085002338444 1.2148980177002822 0.07295559966517311
| 15> C -0.5675955614320455 1.213033462196195 0.07124955965369846
| 16> Cl -1.472534201188864 2.680602773811356 0.16433680886166613
| 17> Cl 1.6849395826283966 2.7082703440659515 0.16531563844713415
| 18> Cl 3.248445427304695 -0.0003152321645316079 -0.00020997360926778115
| 19> Cl 1.6844760132760928 -2.7086223993804057 -0.16544692694946667
| 20> Cl -1.4730367461490708 -2.680454733746872 -0.16384441527569898
| 21> N -2.7153436221264386 0.00019380437777525615 -0.00012925309626061516
| 22> O -3.263599589806286 -0.13679955889097384 1.0796908243042822
| 23> O -3.2632009131342485 0.13788753767316478 -1.0799931169112396
| 24> *
| 25>
| 26>                          ****END OF INPUT****

CARTESIAN COORDINATES (ANGSTROEM)
---------------------------------
  C     -1.234845    0.000044    0.000134
  C     -0.567800   -1.213027   -0.070998
  C      0.829697   -1.215111   -0.072927
  C      1.524141   -0.000160   -0.000114
  C      0.829909    1.214898    0.072956
  C     -0.567596    1.213033    0.071250
  Cl    -1.472534    2.680603    0.164337
  Cl     1.684940    2.708270    0.165316
  Cl     3.248445   -0.000315   -0.000210
  Cl     1.684476   -2.708622   -0.165447
  Cl    -1.473037   -2.680455   -0.163844
  N     -2.715344    0.000194   -0.000129
  O     -3.263600   -0.136800    1.079691
  O     -3.263201    0.137888   -1.079993

 Total Charge           Charge          ....    0
 Multiplicity           Mult            ....    1
 Number of Electrons    NEL             ....  144
 Basis Dimension        Dim             ....  464

ORBITAL ENERGIES
----------------

  NO   OCC          E(Eh)            E(eV)
   0   2.0000    -107.183374     -2916.6079
   1   2.0000    -107.183365     -2916.6076
   2   2.0000    -107.177353     -2916.4441
   3   2.0000    -107.177352     -2916.4440
   4   2.0000    -107.176931     -2916.4326
   5   2.0000     -21.748000      -591.7932
   6   2.0000     -21.747886      -591.7901
   7   2.0000     -16.811122      -457.4539
   8   2.0000     -12.172552      -331.2320
   9   2.0000     -12.172296      -331.2250
  10   2.0000     -12.169729      -331.1552
  11   2.0000     -12.167048      -331.0822
  12   2.0000     -12.165923      -331.0516
  13   2.0000     -12.159878      -330.8871
  14   2.0000     -11.336276      -308.4757
  15   2.0000     -11.336231      -308.4745
  16   2.0000     -11.330353      -308.3146
  17   2.0000     -11.330338      -308.3142
  18   2.0000     -11.329953      -308.3037
  19   2.0000      -9.128245      -248.3922
  20   2.0000      -9.127806      -248.3802
  21   2.0000      -9.125121      -248.3072
  22   2.0000      -9.125032      -248.3048
  23   2.0000      -9.124977      -248.3032
  24   2.0000      -9.124971      -248.3031
  25   2.0000      -9.122241      -248.2288
  26   2.0000      -9.122233      -248.2286
  27   2.0000      -9.121203      -248.2006
  28   2.0000      -9.119572      -248.1562
  29   2.0000      -9.119188      -248.1457
  30   2.0000      -9.119065      -248.1424
  31   2.0000      -9.118904      -248.1380
  32   2.0000      -9.118721      -248.1330
  33   2.0000      -9.118162      -248.1178
  34   2.0000      -1.947499       -52.9941
  35   2.0000      -1.795826       -48.8669
  36   2.0000      -1.520039       -41.3624
  37   2.0000      -1.481852       -40.3233
  38   2.0000      -1.476962       -40.1902
  39   2.0000      -1.449261       -39.4364
  40   2.0000      -1.440176       -39.1892
  41   2.0000      -1.422627       -38.7116
  42   2.0000      -1.374467       -37.4011
  43   2.0000      -1.306873       -35.5618
  44   2.0000      -1.293202       -35.1898
  45   2.0000      -1.214741       -33.0548
  46   2.0000      -1.181982       -32.1634
  47   2.0000      -1.176178       -32.0054
  48   2.0000      -1.135095       -30.8875
  49   2.0000      -1.117634       -30.4124
  50   2.0000      -1.060338       -28.8533
  51   2.0000      -1.022171       -27.8147
  52   2.0000      -0.993587       -27.0369
  53   2.0000      -0.977021       -26.5861
  54   2.0000      -0.960065       -26.1247
  55   2.0000      -0.958592       -26.0846
  56   2.0000      -0.941763       -25.6267
  57   2.0000      -0.933636       -25.4055
  58   2.0000      -0.931425       -25.3454
  59   2.0000      -0.906237       -24.6600
  60   2.0000      -0.865255       -23.5448
  61   2.0000      -0.855515       -23.2798
  62   2.0000      -0.838672       -22.8214
  63   2.0000      -0.837474       -22.7888
  64   2.0000      -0.833516       -22.6811
  65   2.0000      -0.832568       -22.6553
  66   2.0000      -0.831426       -22.6243
  67   2.0000      -0.826561       -22.4919
  68   2.0000      -0.815753       -22.1978
  69   2.0000      -0.792051       -21.5528
  70   2.0000      -0.711557       -19.3625
  71   2.0000      -0.699621       -19.0377
  72   0.0000      -0.517849       -14.0914
  73   0.0000      -0.374229       -10.1833
  74   0.0000      -0.339243        -9.2313
  75   0.0000      -0.333588        -9.0774
  76   0.0000      -0.301115        -8.1938

MULLIKEN ATOMIC CHARGES
-----------------------
   0 C :    0.231473
   1 C :   -0.101208
   2 C :    0.113194
   3 C :   -0.026972
   4 C :    0.113080
   5 C :   -0.101109
   6 Cl:   -0.004172
   7 Cl:   -0.015089
   8 Cl:   -0.013421
   9 Cl:   -0.015117
  10 Cl:   -0.004181
  11 N :    0.407858
  12 O :   -0.292197
  13 O :   -0.292140
Sum of atomic charges:    0.0000000

LOEWDIN ATOMIC CHARGES
----------------------
   0 C :   -0.155688
   1 C :   -0.403644
   2 C :   -0.430979
   3 C :   -0.424935
   4 C :   -0.430984
   5 C :   -0.403653
   6 Cl:    0.465546
   7 Cl:    0.454390
   8 Cl:    0.454177
   9 Cl:    0.454382
  10 Cl:    0.465524
  11 N :   -0.028927
  12 O :   -0.007661
  13 O :   -0.007548

  Mayer bond orders larger than 0.100000
B(  0-C ,  1-C ) :   1.2953 B(  0-C ,  5-C ) :   1.2955 B(  0-C , 11-N ) :   0.9029
B(  1-C ,  2-C ) :   1.3434 B(  1-C , 10-Cl) :   1.2188 B(  2-C ,  3-C ) :   1.3251
B(  2-C ,  9-Cl) :   1.2019 B(  3-C ,  4-C ) :   1.3251 B(  3-C ,  8-Cl) :   1.2150
B(  4-C ,  5-C ) :   1.3435 B(  4-C ,  7-Cl) :   1.2020 B(  5-C ,  6-Cl) :   1.2187
B( 11-N , 12-O ) :   1.6447 B( 11-N , 13-O ) :   1.6449 B( 12-O , 13-O ) :   0.2289

FINAL SINGLE POINT ENERGY     -2734.473833641304

DIPOLE MOMENT
-------------

Method             : SCF
Type of density    : Electron Density
Multiplicity       :   1
Irrep              :   0
Energy             : -2734.4820321899042028 Eh
Relativity type    :
Basis              : AO
                                X                 Y                 Z
Electronic contribution:      6.472237773      -0.001042605       0.000091405
Nuclear contribution   :     -5.096770971       0.000665323      -0.000155815
                        -----------------------------------------
Total Dipole Moment    :      1.375466802      -0.000377282      -0.000064410
                        -----------------------------------------
Magnitude (a.u.)       :      1.375466855
Magnitude (Debye)      :      3.496158902

Rotational constants in cm-1:             0.014756             0.013155             0.007178
Rotational constants in MHz :           442.367649           394.385220           215.203030

                             ****ORCA TERMINATED NORMALLY****
TOTAL RUN TIME: 0 days 0 hours 5 minutes 32 seconds 84 msec
