                         Program Version 6.0.0  -   RELEASE  -
|  1> ! r2scan-3c def2/J RI DEFGRID2 scfconv6 printgap
|  2> %output
|  3>     printlevel normal
|  4> end
|  5> * xyz 0 1
|  6> C -1.8132027437 -1.4608730866 -9.92936e-05
|  7> C -0.5230876999 -0.6994046598 3.32061e-05
|  8> C 0.6891607783 -1.3754484047 7.48985e-05
|  9> C 1.8922368619 -0.6914939826 2.98408e-05
| 10> C 1.892235234 0.6915034362 -7.91814e-05
| 11> C 0.689156398 1.375448318 -2.81854e-05
| 12> C -0.5230902785 0.6993975356 5.74724e-05
| 13> C -1.8132119704 1.4608690567 4.75303e-05
| 14> H -1.627009839 -2.531481093 -0.0001504331
| 15> H -2.4048910027 -1.2103786486 0.8792631576
| 16> H -2.4047359852 -1.2102431665 -0.8795262065
| 17> H 0.6913420345 -2.4564863374 0.0001310114
| 18> H 2.8245319032 -1.2368089263 5.96329e-05
| 19> H 2.8245270728 1.2368262842 -0.0001753492
| 20> H 0.6913260497 2.4564869675 -0.0001374128
| 21> H -2.4053257238 1.2095184457 0.8788899918
| 22> H -1.6270124134 2.5314776983 0.0011160791
| 23> H -2.4043545562 1.2111100751 -0.8799029078
| 24> *
| 25>
| 26>                          ****END OF INPUT****

CARTESIAN COORDINATES (ANGSTROEM)
---------------------------------
  C     -1.813203   -1.460873   -0.000099
  C     -0.523088   -0.699405    0.000033
  C      0.689161   -1.375448    0.000075
  C      1.892237   -0.691494    0.000030
  C      1.892235    0.691503   -0.000079
  C      0.689156    1.375448   -0.000028
  C     -0.523090    0.699398    0.000057
  C     -1.813212    1.460869    0.000048
  H     -1.627010   -2.531481   -0.000150
  H     -2.404891   -1.210379    0.879263
  H     -2.404736   -1.210243   -0.879526
  H      0.691342   -2.456486    0.000131
  H      2.824532   -1.236809    0.000060
  H      2.824527    1.236826   -0.000175
  H      0.691326    2.456487   -0.000137
  H     -2.405326    1.209518    0.878890
  H     -1.627012    2.531478    0.001116
  H     -2.404355    1.211110   -0.879903

 Total Charge           Charge          ....    0
 Multiplicity           Mult            ....    1
 Number of Electrons    NEL             ....   58
 Basis Dimension        Dim             ....  202

ORBITAL ENERGIES
----------------

  NO   OCC          E(Eh)            E(eV)
   0   2.0000     -10.038190      -273.1530
   1   2.0000     -10.037785      -273.1420
   2   2.0000     -10.026853      -272.8445
   3   2.0000     -10.026842      -272.8443
   4   2.0000     -10.026302      -272.8296
   5   2.0000     -10.026208      -272.8270
   6   2.0000     -10.025830      -272.8167
   7   2.0000     -10.025464      -272.8067
   8   2.0000      -0.827824       -22.5262
   9   2.0000      -0.745452       -20.2848
  10   2.0000      -0.730477       -19.8773
  11   2.0000      -0.664988       -18.0952
  12   2.0000      -0.640314       -17.4238
  13   2.0000      -0.563594       -15.3362
  14   2.0000      -0.539615       -14.6837
  15   2.0000      -0.467842       -12.7306
  16   2.0000      -0.440241       -11.9796
  17   2.0000      -0.412735       -11.2311
  18   2.0000      -0.408054       -11.1037
  19   2.0000      -0.379229       -10.3193
  20   2.0000      -0.371925       -10.1206
  21   2.0000      -0.370119       -10.0714
  22   2.0000      -0.356521        -9.7014
  23   2.0000      -0.352694        -9.5973
  24   2.0000      -0.323960        -8.8154
  25   2.0000      -0.301807        -8.2126
  26   2.0000      -0.300371        -8.1735
  27   2.0000      -0.226960        -6.1759
  28   2.0000      -0.217456        -5.9173
  29   0.0000      -0.023083        -0.6281
  30   0.0000      -0.022683        -0.6172
  31   0.0000       0.084941         2.3114
  32   0.0000       0.098196         2.6721
  33   0.0000       0.099527         2.7083

MULLIKEN ATOMIC CHARGES
-----------------------
   0 C :   -0.550571
   1 C :    0.163700
   2 C :   -0.215235
   3 C :   -0.158562
   4 C :   -0.158561
   5 C :   -0.215237
   6 C :    0.163705
   7 C :   -0.550577
   8 H :    0.150201
   9 H :    0.160845
  10 H :    0.160805
  11 H :    0.144766
  12 H :    0.144052
  13 H :    0.144052
  14 H :    0.144766
  15 H :    0.160752
  16 H :    0.150202
  17 H :    0.160897
Sum of atomic charges:   -0.0000000

LOEWDIN ATOMIC CHARGES
----------------------
   0 C :   -0.387188
   1 C :   -0.096242
   2 C :   -0.164449
   3 C :   -0.170499
   4 C :   -0.170500
   5 C :   -0.164448
   6 C :   -0.096242
   7 C :   -0.387191
   8 H :    0.159512
   9 H :    0.163285
  10 H :    0.163294
  11 H :    0.166373
  12 H :    0.165914
  13 H :    0.165915
  14 H :    0.166373
  15 H :    0.163281
  16 H :    0.159512
  17 H :    0.163298

  Mayer bond orders larger than 0.100000
B(  0-C ,  1-C ) :   0.7955 B(  0-C ,  8-H ) :   0.9886 B(  0-C ,  9-H ) :   0.9801
B(  0-C , 10-H ) :   0.9800 B(  1-C ,  2-C ) :   1.4173 B(  1-C ,  6-C ) :   1.4564
B(  2-C ,  3-C ) :   1.4415 B(  2-C , 11-H ) :   0.9302 B(  3-C ,  4-C ) :   1.4381
B(  3-C , 12-H ) :   0.9476 B(  4-C ,  5-C ) :   1.4415 B(  4-C , 13-H ) :   0.9476
B(  5-C ,  6-C ) :   1.4173 B(  5-C , 14-H ) :   0.9302 B(  6-C ,  7-C ) :   0.7955
B(  7-C , 15-H ) :   0.9800 B(  7-C , 16-H ) :   0.9886 B(  7-C , 17-H ) :   0.9800

Dispersion correction           -0.005781890
FINAL SINGLE POINT ENERGY      -310.783894598295

DIPOLE MOMENT
-------------

Method             : SCF
Type of density    : Electron Density
Multiplicity       :   1
Irrep              :   0
Energy             :  -310.7841307584416199 Eh
Relativity type    :
Basis              : AO
                                X                 Y                 Z
Electronic contribution:      5.193564434      -0.000022641       0.000294477
Nuclear contribution   :     -5.480402041       0.000019982      -0.000405698
                        -----------------------------------------
Total Dipole Moment    :     -0.286837607      -0.000002659      -0.000111221
                        -----------------------------------------
Magnitude (a.u.)       :      0.286837628
Magnitude (Debye)      :      0.729083310

Rotational constants in cm-1:             0.107276             0.072728             0.044049
Rotational constants in MHz :          3216.054215          2180.319753          1320.570049

                             ****ORCA TERMINATED NORMALLY****
TOTAL RUN TIME: 0 days 0 hours 0 minutes 13 seconds 217 msec
