                         Program Version 6.0.0  -   RELEASE  -
|  1> ! r2scan-3c def2/J RI DEFGRID2 scfconv6 printgap
|  2> %output
|  3>     printlevel normal
|  4> end
|  5> * xyz 0 1
|  6> C 1.7578732172 0.0816975269 -1.5107698537
|  7> C 3.1347050949 0.1429036095 -1.6160065467
|  8> C 3.9113037022 0.3181069826 -0.4808912906
|  9> C 3.299605216 0.4457249192 0.7616582933
| 10> C 1.9205202402 0.3947680198 0.8666161501
| 11> C 1.1397465259 0.2014626887 -0.2691914969
| 12> C -0.3286841156 0.1521973363 -0.1357872064
| 13> C -0.989611925 1.1785593293 0.531829913
| 14> C -2.366595866 1.1677841461 0.6696373064
| 15> C -3.1183440979 0.1184461685 0.1452614197
| 16> C -2.4667473531 -0.9225731133 -0.5120617053
| 17> C -1.0806314215 -0.905451638 -0.6528160859
| 18> Cl -0.3139642518 -2.2418443041 -1.4221536709
| 19> Cl -3.3853898369 -2.2348566804 -1.14389887
| 20> Cl -4.8317909455 0.0966138041 0.3098554322
| 21> Cl -3.1617373376 2.4549588418 1.4915134274
| 22> Cl 4.2598193769 0.6690939058 2.1872115865
| 23> Cl 5.6371314644 0.3807776254 -0.6136188025
| 24> H 1.161904019 -0.0408262855 -2.399709832
| 25> H 3.6162902812 0.0546514233 -2.575609917
| 26> H 1.4589537111 0.4849341844 1.8359589368
| 27> H -0.4225380145 2.0023399916 0.933017473
| 28> *
| 29>
| 30>                          ****END OF INPUT****

CARTESIAN COORDINATES (ANGSTROEM)
---------------------------------
  C      1.757873    0.081698   -1.510770
  C      3.134705    0.142904   -1.616007
  C      3.911304    0.318107   -0.480891
  C      3.299605    0.445725    0.761658
  C      1.920520    0.394768    0.866616
  C      1.139747    0.201463   -0.269191
  C     -0.328684    0.152197   -0.135787
  C     -0.989612    1.178559    0.531830
  C     -2.366596    1.167784    0.669637
  C     -3.118344    0.118446    0.145261
  C     -2.466747   -0.922573   -0.512062
  C     -1.080631   -0.905452   -0.652816
  Cl    -0.313964   -2.241844   -1.422154
  Cl    -3.385390   -2.234857   -1.143899
  Cl    -4.831791    0.096614    0.309855
  Cl    -3.161737    2.454959    1.491513
  Cl     4.259819    0.669094    2.187212
  Cl     5.637131    0.380778   -0.613619
  H      1.161904   -0.040826   -2.399710
  H      3.616290    0.054651   -2.575610
  H      1.458954    0.484934    1.835959
  H     -0.422538    2.002340    0.933017

 Total Charge           Charge          ....    0
 Multiplicity           Mult            ....    1
 Number of Electrons    NEL             ....  178
 Basis Dimension        Dim             ....  410

ORBITAL ENERGIES
----------------

  NO   OCC          E(Eh)            E(eV)
   0   2.0000    -101.245300     -2755.0247
   1   2.0000    -101.245207     -2755.0221
   2   2.0000    -101.244251     -2754.9961
   3   2.0000    -101.244072     -2754.9913
   4   2.0000    -101.236205     -2754.7772
   5   2.0000    -101.236130     -2754.7751
   6   2.0000     -10.141038      -275.9517
   7   2.0000     -10.139551      -275.9112
   8   2.0000     -10.136343      -275.8239
   9   2.0000     -10.135565      -275.8028
  10   2.0000     -10.126143      -275.5463
  11   2.0000     -10.125549      -275.5302
  12   2.0000     -10.095103      -274.7017
  13   2.0000     -10.083086      -274.3747
  14   2.0000     -10.081006      -274.3181
  15   2.0000     -10.073518      -274.1144
  16   2.0000     -10.071387      -274.0564
  17   2.0000     -10.067984      -273.9638
  18   2.0000      -9.400905      -255.8116
  19   2.0000      -9.400876      -255.8108
  20   2.0000      -9.400213      -255.7928
  21   2.0000      -9.399850      -255.7829
  22   2.0000      -9.391873      -255.5658
  23   2.0000      -9.391790      -255.5636
  24   2.0000      -7.147641      -194.4972
  25   2.0000      -7.147588      -194.4958
  26   2.0000      -7.146772      -194.4736
  27   2.0000      -7.146387      -194.4631
  28   2.0000      -7.138346      -194.2443
  29   2.0000      -7.138279      -194.2424
  30   2.0000      -7.137222      -194.2137
  31   2.0000      -7.137217      -194.2136
  32   2.0000      -7.136552      -194.1955
  33   2.0000      -7.136143      -194.1843
  34   2.0000      -7.136109      -194.1834
  35   2.0000      -7.136101      -194.1832
  36   2.0000      -7.135527      -194.1675
  37   2.0000      -7.135328      -194.1622
  38   2.0000      -7.128191      -193.9679
  39   2.0000      -7.128074      -193.9648
  40   2.0000      -7.127389      -193.9461
  41   2.0000      -7.127332      -193.9446
  42   2.0000      -0.929970       -25.3058
  43   2.0000      -0.901974       -24.5440
  44   2.0000      -0.883811       -24.0497
  45   2.0000      -0.864251       -23.5175
  46   2.0000      -0.837344       -22.7853
  47   2.0000      -0.834645       -22.7118
  48   2.0000      -0.827840       -22.5267
  49   2.0000      -0.810011       -22.0415
  50   2.0000      -0.756324       -20.5806
  51   2.0000      -0.733473       -19.9588
  52   2.0000      -0.718704       -19.5569
  53   2.0000      -0.701658       -19.0931
  54   2.0000      -0.628469       -17.1015
  55   2.0000      -0.612669       -16.6716
  56   2.0000      -0.602872       -16.4050
  57   2.0000      -0.574820       -15.6416
  58   2.0000      -0.521516       -14.1912
  59   2.0000      -0.515001       -14.0139
  60   2.0000      -0.495684       -13.4883
  61   2.0000      -0.479120       -13.0375
  62   2.0000      -0.469429       -12.7738
  63   2.0000      -0.454256       -12.3609
  64   2.0000      -0.443493       -12.0680
  65   2.0000      -0.437008       -11.8916
  66   2.0000      -0.435714       -11.8564
  67   2.0000      -0.427758       -11.6399
  68   2.0000      -0.411667       -11.2020
  69   2.0000      -0.406934       -11.0732
  70   2.0000      -0.394651       -10.7390
  71   2.0000      -0.378852       -10.3091
  72   2.0000      -0.370817       -10.0904
  73   2.0000      -0.366337        -9.9685
  74   2.0000      -0.354507        -9.6466
  75   2.0000      -0.335302        -9.1240
  76   2.0000      -0.333973        -9.0879
  77   2.0000      -0.326873        -8.8947
  78   2.0000      -0.325016        -8.8441
  79   2.0000      -0.318740        -8.6733
  80   2.0000      -0.312227        -8.4961
  81   2.0000      -0.307424        -8.3654
  82   2.0000      -0.303473        -8.2579
  83   2.0000      -0.289199        -7.8695
  84   2.0000      -0.284169        -7.7326
  85   2.0000      -0.264300        -7.1920
  86   2.0000      -0.254091        -6.9142
  87   2.0000      -0.246561        -6.7093
  88   2.0000      -0.233942        -6.3659
  89   0.0000      -0.090427        -2.4606
  90   0.0000      -0.077430        -2.1070
  91   0.0000      -0.067332        -1.8322
  92   0.0000      -0.060058        -1.6343
  93   0.0000      -0.049686        -1.3520

MULLIKEN ATOMIC CHARGES
-----------------------
   0 C :   -0.152951
   1 C :   -0.230458
   2 C :    0.153463
   3 C :    0.076029
   4 C :   -0.245735
   5 C :    0.145574
   6 C :    0.178272
   7 C :   -0.318866
   8 C :    0.117709
   9 C :    0.079667
  10 C :    0.036323
  11 C :   -0.014684
  12 Cl:   -0.065398
  13 Cl:   -0.064665
  14 Cl:   -0.063367
  15 Cl:   -0.090657
  16 Cl:   -0.108281
  17 Cl:   -0.106038
  18 H :    0.163704
  19 H :    0.164507
  20 H :    0.171511
  21 H :    0.174341
Sum of atomic charges:    0.0000000

LOEWDIN ATOMIC CHARGES
----------------------
   0 C :   -0.136193
   1 C :   -0.154382
   2 C :   -0.176759
   3 C :   -0.175242
   4 C :   -0.141705
   5 C :   -0.074517
   6 C :   -0.069396
   7 C :   -0.142182
   8 C :   -0.177526
   9 C :   -0.193672
  10 C :   -0.186908
  11 C :   -0.163588
  12 Cl:    0.193952
  13 Cl:    0.185537
  14 Cl:    0.185402
  15 Cl:    0.170753
  16 Cl:    0.154508
  17 Cl:    0.156000
  18 H :    0.181459
  19 H :    0.183290
  20 H :    0.188864
  21 H :    0.192307

  Mayer bond orders larger than 0.100000
B(  0-C ,  1-C ) :   1.4037 B(  0-C ,  5-C ) :   1.3690 B(  0-C , 18-H ) :   0.9372
B(  1-C ,  2-C ) :   1.3340 B(  1-C , 19-H ) :   0.9460 B(  2-C ,  3-C ) :   1.2955
B(  2-C , 17-Cl) :   1.0449 B(  3-C ,  4-C ) :   1.3407 B(  3-C , 16-Cl) :   1.0585
B(  4-C ,  5-C ) :   1.3809 B(  4-C , 20-H ) :   0.9336 B(  5-C ,  6-C ) :   0.7686
B(  6-C ,  7-C ) :   1.3629 B(  6-C , 11-C ) :   1.2494 B(  7-C ,  8-C ) :   1.3170
B(  7-C , 21-H ) :   0.9266 B(  8-C ,  9-C ) :   1.2154 B(  8-C , 15-Cl) :   1.0804
B(  9-C , 10-C ) :   1.0972 B(  9-C , 14-Cl) :   1.2458 B( 10-C , 11-C ) :   1.1011
B( 10-C , 13-Cl) :   1.2668 B( 11-C , 12-Cl) :   1.2864

Dispersion correction           -0.014287124
FINAL SINGLE POINT ENERGY     -3220.642499499404

DIPOLE MOMENT
-------------

Method             : SCF
Type of density    : Electron Density
Multiplicity       :   1
Irrep              :   0
Energy             : -3220.6403465190519455 Eh
Relativity type    :
Basis              : AO
                                X                 Y                 Z
Electronic contribution:     -7.904576063      -3.339876035       2.803691298
Nuclear contribution   :      7.865649573       3.521251577      -3.155665738
                        -----------------------------------------
Total Dipole Moment    :     -0.038926490       0.181375542      -0.351974440
                        -----------------------------------------
Magnitude (a.u.)       :      0.397867271
Magnitude (Debye)      :      1.011298233

Rotational constants in cm-1:             0.014847             0.003866             0.003248
Rotational constants in MHz :           445.100762           115.887533            97.384028

                             ****ORCA TERMINATED NORMALLY****
TOTAL RUN TIME: 0 days 0 hours 1 minutes 11 seconds 803 msec
