                         Program Version 6.0.0  -   RELEASE  -
|  1> ! r2scan-3c def2/J RI DEFGRID2 scfconv6 printgap
|  2> %output
|  3>     printlevel normal
|  4> end
|  5> %cpcm
|  6>     smd true
|  7>     smdsolvent "water"
|  8> end
|  9> * xyz 0 1
| 10> C 1.7578732172 0.0816975269 -1.5107698537
| 11> C 3.1347050949 0.1429036095 -1.6160065467
| 12> C 3.9113037022 0.3181069826 -0.4808912906
| 13> C 3.299605216 0.4457249192 0.7616582933
| 14> C 1.9205202402 0.3947680198 0.8666161501
| 15> C 1.1397465259 0.2014626887 -0.2691914969
| 16> C -0.3286841156 0.1521973363 -0.1357872064
| 17> C -0.989611925 1.1785593293 0.531829913
| 18> C -2.366595866 1.1677841461 0.6696373064
| 19> C -3.1183440979 0.1184461685 0.1452614197
| 20> C -2.4667473531 -0.9225731133 -0.5120617053
| 21> C -1.0806314215 -0.905451638 -0.6528160859
| 22> Cl -0.3139642518 -2.2418443041 -1.4221536709
| 23> Cl -3.3853898369 -2.2348566804 -1.14389887
| 24> Cl -4.8317909455 0.0966138041 0.3098554322
| 25> Cl -3.1617373376 2.4549588418 1.4915134274
| 26> Cl 4.2598193769 0.6690939058 2.1872115865
| 27> Cl 5.6371314644 0.3807776254 -0.6136188025
| 28> H 1.161904019 -0.0408262855 -2.399709832
| 29> H 3.6162902812 0.0546514233 -2.575609917
| 30> H 1.4589537111 0.4849341844 1.8359589368
| 31> H -0.4225380145 2.0023399916 0.933017473
| 32> *
| 33>
| 34>                          ****END OF INPUT****

CARTESIAN COORDINATES (ANGSTROEM)
---------------------------------
  C      1.757873    0.081698   -1.510770
  C      3.134705    0.142904   -1.616007
  C      3.911304    0.318107   -0.480891
  C      3.299605    0.445725    0.761658
  C      1.920520    0.394768    0.866616
  C      1.139747    0.201463   -0.269191
  C     -0.328684    0.152197   -0.135787
  C     -0.989612    1.178559    0.531830
  C     -2.366596    1.167784    0.669637
  C     -3.118344    0.118446    0.145261
  C     -2.466747   -0.922573   -0.512062
  C     -1.080631   -0.905452   -0.652816
  Cl    -0.313964   -2.241844   -1.422154
  Cl    -3.385390   -2.234857   -1.143899
  Cl    -4.831791    0.096614    0.309855
  Cl    -3.161737    2.454959    1.491513
  Cl     4.259819    0.669094    2.187212
  Cl     5.637131    0.380778   -0.613619
  H      1.161904   -0.040826   -2.399710
  H      3.616290    0.054651   -2.575610
  H      1.458954    0.484934    1.835959
  H     -0.422538    2.002340    0.933017

 Total Charge           Charge          ....    0
 Multiplicity           Mult            ....    1
 Number of Electrons    NEL             ....  178
 Basis Dimension        Dim             ....  410

ORBITAL ENERGIES
----------------

  NO   OCC          E(Eh)            E(eV)
   0   2.0000    -101.242566     -2754.9503
   1   2.0000    -101.242177     -2754.9397
   2   2.0000    -101.238916     -2754.8510
   3   2.0000    -101.238562     -2754.8413
   4   2.0000    -101.233199     -2754.6954
   5   2.0000    -101.232896     -2754.6871
   6   2.0000     -10.133782      -275.7542
   7   2.0000     -10.132539      -275.7204
   8   2.0000     -10.128129      -275.6004
   9   2.0000     -10.126876      -275.5663
  10   2.0000     -10.117574      -275.3132
  11   2.0000     -10.117097      -275.3002
  12   2.0000     -10.084622      -274.4165
  13   2.0000     -10.071329      -274.0548
  14   2.0000     -10.068355      -273.9739
  15   2.0000     -10.060735      -273.7665
  16   2.0000     -10.058162      -273.6965
  17   2.0000     -10.054302      -273.5915
  18   2.0000      -9.398303      -255.7408
  19   2.0000      -9.397970      -255.7318
  20   2.0000      -9.394812      -255.6458
  21   2.0000      -9.394611      -255.6404
  22   2.0000      -9.389052      -255.4891
  23   2.0000      -9.388742      -255.4807
  24   2.0000      -7.144918      -194.4231
  25   2.0000      -7.144571      -194.4137
  26   2.0000      -7.141251      -194.3233
  27   2.0000      -7.141092      -194.3190
  28   2.0000      -7.135371      -194.1633
  29   2.0000      -7.135082      -194.1554
  30   2.0000      -7.134631      -194.1432
  31   2.0000      -7.134312      -194.1345
  32   2.0000      -7.133625      -194.1158
  33   2.0000      -7.133279      -194.1064
  34   2.0000      -7.131109      -194.0473
  35   2.0000      -7.130959      -194.0433
  36   2.0000      -7.130328      -194.0261
  37   2.0000      -7.129978      -194.0166
  38   2.0000      -7.125423      -193.8926
  39   2.0000      -7.125075      -193.8831
  40   2.0000      -7.124635      -193.8712
  41   2.0000      -7.124348      -193.8634
  42   2.0000      -0.922966       -25.1152
  43   2.0000      -0.894788       -24.3484
  44   2.0000      -0.877892       -23.8887
  45   2.0000      -0.858077       -23.3495
  46   2.0000      -0.832744       -22.6601
  47   2.0000      -0.828750       -22.5514
  48   2.0000      -0.822311       -22.3762
  49   2.0000      -0.802140       -21.8273
  50   2.0000      -0.747499       -20.3405
  51   2.0000      -0.723248       -19.6806
  52   2.0000      -0.709907       -19.3175
  53   2.0000      -0.693543       -18.8723
  54   2.0000      -0.618771       -16.8376
  55   2.0000      -0.602082       -16.3835
  56   2.0000      -0.593285       -16.1441
  57   2.0000      -0.565384       -15.3849
  58   2.0000      -0.511839       -13.9279
  59   2.0000      -0.506140       -13.7728
  60   2.0000      -0.487557       -13.2671
  61   2.0000      -0.468607       -12.7515
  62   2.0000      -0.461260       -12.5515
  63   2.0000      -0.445575       -12.1247
  64   2.0000      -0.436257       -11.8712
  65   2.0000      -0.429560       -11.6889
  66   2.0000      -0.426438       -11.6040
  67   2.0000      -0.414915       -11.2904
  68   2.0000      -0.404399       -11.0042
  69   2.0000      -0.399173       -10.8621
  70   2.0000      -0.384586       -10.4651
  71   2.0000      -0.372536       -10.1372
  72   2.0000      -0.361089        -9.8257
  73   2.0000      -0.355170        -9.6647
  74   2.0000      -0.346622        -9.4321
  75   2.0000      -0.332050        -9.0356
  76   2.0000      -0.327099        -8.9008
  77   2.0000      -0.323883        -8.8133
  78   2.0000      -0.322055        -8.7636
  79   2.0000      -0.314035        -8.5453
  80   2.0000      -0.308614        -8.3978
  81   2.0000      -0.301430        -8.2023
  82   2.0000      -0.298522        -8.1232
  83   2.0000      -0.286557        -7.7976
  84   2.0000      -0.281283        -7.6541
  85   2.0000      -0.256480        -6.9792
  86   2.0000      -0.246029        -6.6948
  87   2.0000      -0.239193        -6.5088
  88   2.0000      -0.226671        -6.1680
  89   0.0000      -0.081115        -2.2073
  90   0.0000      -0.067832        -1.8458
  91   0.0000      -0.058219        -1.5842
  92   0.0000      -0.052256        -1.4220
  93   0.0000      -0.040811        -1.1105

MULLIKEN ATOMIC CHARGES
-----------------------
   0 C :   -0.174089
   1 C :   -0.249643
   2 C :    0.154659
   3 C :    0.061217
   4 C :   -0.219543
   5 C :    0.101259
   6 C :    0.180746
   7 C :   -0.288746
   8 C :    0.102701
   9 C :    0.092556
  10 C :    0.038768
  11 C :    0.005485
  12 Cl:   -0.082961
  13 Cl:   -0.084573
  14 Cl:   -0.083873
  15 Cl:   -0.106500
  16 Cl:   -0.130190
  17 Cl:   -0.128594
  18 H :    0.197034
  19 H :    0.199652
  20 H :    0.205451
  21 H :    0.209185
Sum of atomic charges:    0.0000000

LOEWDIN ATOMIC CHARGES
----------------------
   0 C :   -0.132256
   1 C :   -0.152993
   2 C :   -0.183145
   3 C :   -0.182136
   4 C :   -0.132548
   5 C :   -0.074605
   6 C :   -0.060626
   7 C :   -0.125546
   8 C :   -0.177598
   9 C :   -0.193265
  10 C :   -0.187078
  11 C :   -0.159004
  12 Cl:    0.185246
  13 Cl:    0.172069
  14 Cl:    0.171590
  15 Cl:    0.159983
  16 Cl:    0.137413
  17 Cl:    0.138709
  18 H :    0.192368
  19 H :    0.195574
  20 H :    0.201661
  21 H :    0.206188

  Mayer bond orders larger than 0.100000
B(  0-C ,  1-C ) :   1.4170 B(  0-C ,  5-C ) :   1.3438 B(  0-C , 18-H ) :   0.9388
B(  1-C ,  2-C ) :   1.3098 B(  1-C , 19-H ) :   0.9429 B(  2-C ,  3-C ) :   1.2732
B(  2-C , 17-Cl) :   1.0267 B(  3-C ,  4-C ) :   1.3345 B(  3-C , 16-Cl) :   1.0482
B(  4-C ,  5-C ) :   1.4032 B(  4-C , 20-H ) :   0.9208 B(  5-C ,  6-C ) :   0.7613
B(  6-C ,  7-C ) :   1.4047 B(  6-C , 11-C ) :   1.2383 B(  7-C ,  8-C ) :   1.3197
B(  7-C , 21-H ) :   0.9089 B(  8-C ,  9-C ) :   1.2081 B(  8-C , 15-Cl) :   1.0802
B(  9-C , 10-C ) :   1.1037 B(  9-C , 14-Cl) :   1.2206 B( 10-C , 11-C ) :   1.1109
B( 10-C , 13-Cl) :   1.2434 B( 11-C , 12-Cl) :   1.2512

Dispersion correction           -0.014287124
FINAL SINGLE POINT ENERGY     -3220.644239526795

DIPOLE MOMENT
-------------

Method             : SCF
Type of density    : Electron Density
Multiplicity       :   1
Irrep              :   0
Energy             : -3220.6420865464428971 Eh
Relativity type    :
Basis              : AO
                                X                 Y                 Z
Electronic contribution:     -7.897780737      -3.144455233       2.686713056
Nuclear contribution   :      7.865649573       3.521251577      -3.155665738
                        -----------------------------------------
Total Dipole Moment    :     -0.032131164       0.376796344      -0.468952682
                        -----------------------------------------
Magnitude (a.u.)       :      0.602432166
Magnitude (Debye)      :      1.531260875

Rotational constants in cm-1:             0.014847             0.003866             0.003248
Rotational constants in MHz :           445.100762           115.887533            97.384028

                             ****ORCA TERMINATED NORMALLY****
TOTAL RUN TIME: 0 days 0 hours 1 minutes 32 seconds 707 msec
