                         Program Version 6.0.0  -   RELEASE  -
|  1> ! wb97x-v def2-tzvp def2/J RIJCOSX DEFGRID2 scfconv7 GCP(DFT/TZ) printgap
|  2> %output
|  3>     printlevel normal
|  4> end
|  5> * xyz 0 1
|  6> C 1.2362019730132334 0.441940813610939 -1.5610653740377962
|  7> C 2.613477015711325 0.5367804306550014 -1.7006813657655921
|  8> C 3.4400952885338865 0.3012642820304623 -0.606754745530594
|  9> C 2.8831231508149493 -0.029541053330961003 0.6300902215463084
| 10> C 1.5036910575035087 -0.12559139775936617 0.771216805023773
| 11> C 0.6801727908498263 0.1105394954171213 -0.32611646556611196
| 12> C -0.7933571996207962 0.007477278238674237 -0.171998486358929
| 13> C -1.5569147604804219 1.1312003729969413 0.16149746820596128
| 14> C -2.9426438568668436 1.0314250982127766 0.3019067784905279
| 15> C -3.58161158085025 -0.18489730958699574 0.11301700321653098
| 16> C -2.8345504208561985 -1.3054363401962146 -0.217901347875708
| 17> C -1.4484305968970652 -1.2141978575423125 -0.36056626243319395
| 18> Cl -0.5147503353088231 -2.6201209626394646 -0.778733455170957
| 19> Cl -3.6641911782734917 -2.8167283201830275 -0.4506179859547713
| 20> Cl -3.906359242569819 2.4194255146379526 0.715787622279182
| 21> Cl -0.7583879168234331 2.656904869615593 0.4016495982336665
| 22> Cl 3.8936129295323227 -0.33018636680896885 2.0208378583419084
| 23> Cl 5.168620189946191 0.4254276606429184 -0.8087509443211307
| 24> H 0.5942277521589568 0.6261555937859558 -2.415660328174265
| 25> H 3.0516120268041522 0.7938137868904784 -2.6584164378589317
| 26> H 1.0754788515103137 -0.38356407606755377 1.73348615246466
| 27> H -4.656700796675228 -0.2591212314415069 0.22253972068931155
| 28> *
| 29>
| 30>                          ****END OF INPUT****

CARTESIAN COORDINATES (ANGSTROEM)
---------------------------------
  C      1.236202    0.441941   -1.561065
  C      2.613477    0.536780   -1.700681
  C      3.440095    0.301264   -0.606755
  C      2.883123   -0.029541    0.630090
  C      1.503691   -0.125591    0.771217
  C      0.680173    0.110539   -0.326116
  C     -0.793357    0.007477   -0.171998
  C     -1.556915    1.131200    0.161497
  C     -2.942644    1.031425    0.301907
  C     -3.581612   -0.184897    0.113017
  C     -2.834550   -1.305436   -0.217901
  C     -1.448431   -1.214198   -0.360566
  Cl    -0.514750   -2.620121   -0.778733
  Cl    -3.664191   -2.816728   -0.450618
  Cl    -3.906359    2.419426    0.715788
  Cl    -0.758388    2.656905    0.401650
  Cl     3.893613   -0.330186    2.020838
  Cl     5.168620    0.425428   -0.808751
  H      0.594228    0.626156   -2.415660
  H      3.051612    0.793814   -2.658416
  H      1.075479   -0.383564    1.733486
  H     -4.656701   -0.259121    0.222540

 Total Charge           Charge          ....    0
 Multiplicity           Mult            ....    1
 Number of Electrons    NEL             ....  178
 Basis Dimension        Dim             ....  618

ORBITAL ENERGIES
----------------

  NO   OCC          E(Eh)            E(eV)
   0   2.0000    -107.169127     -2916.2202
   1   2.0000    -107.169105     -2916.2196
   2   2.0000    -107.168414     -2916.2008
   3   2.0000    -107.168405     -2916.2006
   4   2.0000    -107.157508     -2915.9040
   5   2.0000    -107.157385     -2915.9007
   6   2.0000     -12.155289      -330.7622
   7   2.0000     -12.154761      -330.7479
   8   2.0000     -12.152873      -330.6965
   9   2.0000     -12.152698      -330.6917
  10   2.0000     -12.140562      -330.3615
  11   2.0000     -12.138328      -330.3007
  12   2.0000     -12.116455      -329.7055
  13   2.0000     -12.102507      -329.3259
  14   2.0000     -12.097094      -329.1787
  15   2.0000     -12.086849      -328.8999
  16   2.0000     -12.085746      -328.8699
  17   2.0000     -12.082375      -328.7781
  18   2.0000     -11.322155      -308.0915
  19   2.0000     -11.322133      -308.0909
  20   2.0000     -11.321446      -308.0722
  21   2.0000     -11.321398      -308.0709
  22   2.0000     -11.310518      -307.7749
  23   2.0000     -11.310403      -307.7717
  24   2.0000      -9.114162      -248.0090
  25   2.0000      -9.113673      -247.9957
  26   2.0000      -9.113183      -247.9823
  27   2.0000      -9.112831      -247.9727
  28   2.0000      -9.111151      -247.9270
  29   2.0000      -9.111111      -247.9259
  30   2.0000      -9.111044      -247.9241
  31   2.0000      -9.110978      -247.9223
  32   2.0000      -9.110291      -247.9036
  33   2.0000      -9.110146      -247.8997
  34   2.0000      -9.110023      -247.8963
  35   2.0000      -9.109875      -247.8923
  36   2.0000      -9.102413      -247.6893
  37   2.0000      -9.101750      -247.6712
  38   2.0000      -9.099698      -247.6154
  39   2.0000      -9.099370      -247.6065
  40   2.0000      -9.099224      -247.6025
  41   2.0000      -9.098829      -247.5917
  42   2.0000      -1.494337       -40.6630
  43   2.0000      -1.467088       -39.9215
  44   2.0000      -1.464660       -39.8554
  45   2.0000      -1.443390       -39.2767
  46   2.0000      -1.434229       -39.0273
  47   2.0000      -1.424280       -38.7566
  48   2.0000      -1.403648       -38.1952
  49   2.0000      -1.384366       -37.6705
  50   2.0000      -1.334906       -36.3246
  51   2.0000      -1.302818       -35.4515
  52   2.0000      -1.290105       -35.1055
  53   2.0000      -1.284569       -34.9549
  54   2.0000      -1.184753       -32.2388
  55   2.0000      -1.147871       -31.2352
  56   2.0000      -1.144635       -31.1471
  57   2.0000      -1.123491       -30.5717
  58   2.0000      -1.043635       -28.3988
  59   2.0000      -1.026073       -27.9209
  60   2.0000      -1.008933       -27.4545
  61   2.0000      -1.000473       -27.2243
  62   2.0000      -0.982956       -26.7476
  63   2.0000      -0.966265       -26.2934
  64   2.0000      -0.958994       -26.0956
  65   2.0000      -0.941241       -25.6125
  66   2.0000      -0.919566       -25.0226
  67   2.0000      -0.918433       -24.9918
  68   2.0000      -0.908617       -24.7247
  69   2.0000      -0.885141       -24.0859
  70   2.0000      -0.884717       -24.0744
  71   2.0000      -0.860286       -23.4096
  72   2.0000      -0.857999       -23.3473
  73   2.0000      -0.852080       -23.1863
  74   2.0000      -0.832621       -22.6568
  75   2.0000      -0.826396       -22.4874
  76   2.0000      -0.824340       -22.4314
  77   2.0000      -0.819002       -22.2862
  78   2.0000      -0.817767       -22.2526
  79   2.0000      -0.814743       -22.1703
  80   2.0000      -0.812011       -22.0960
  81   2.0000      -0.807615       -21.9763
  82   2.0000      -0.800664       -21.7872
  83   2.0000      -0.784248       -21.3405
  84   2.0000      -0.781234       -21.2585
  85   2.0000      -0.696404       -18.9501
  86   2.0000      -0.688903       -18.7460
  87   2.0000      -0.680467       -18.5164
  88   2.0000      -0.674500       -18.3541
  89   0.0000      -0.334254        -9.0955
  90   0.0000      -0.319898        -8.7049
  91   0.0000      -0.310944        -8.4612
  92   0.0000      -0.301541        -8.2054
  93   0.0000      -0.299275        -8.1437

MULLIKEN ATOMIC CHARGES
-----------------------
   0 C :   -0.130594
   1 C :   -0.205645
   2 C :    0.098130
   3 C :    0.080231
   4 C :   -0.205297
   5 C :    0.140328
   6 C :    0.013575
   7 C :    0.034083
   8 C :    0.045848
   9 C :   -0.256799
  10 C :    0.046569
  11 C :    0.033527
  12 Cl:   -0.028966
  13 Cl:   -0.045208
  14 Cl:   -0.045137
  15 Cl:   -0.029176
  16 Cl:   -0.058882
  17 Cl:   -0.060197
  18 H :    0.135971
  19 H :    0.139572
  20 H :    0.143648
  21 H :    0.154418
Sum of atomic charges:   -0.0000000

LOEWDIN ATOMIC CHARGES
----------------------
   0 C :   -0.089569
   1 C :   -0.127210
   2 C :   -0.420778
   3 C :   -0.418620
   4 C :   -0.093336
   5 C :   -0.130075
   6 C :   -0.112840
   7 C :   -0.388170
   8 C :   -0.426118
   9 C :   -0.136237
  10 C :   -0.426158
  11 C :   -0.388132
  12 Cl:    0.444988
  13 Cl:    0.418996
  14 Cl:    0.418953
  15 Cl:    0.445029
  16 Cl:    0.404125
  17 Cl:    0.402933
  18 H :    0.154651
  19 H :    0.152015
  20 H :    0.157972
  21 H :    0.157582

  Mayer bond orders larger than 0.100000
B(  0-C ,  1-C ) :   1.4487 B(  0-C ,  5-C ) :   1.3653 B(  0-C , 18-H ) :   0.9682
B(  1-C ,  2-C ) :   1.3845 B(  1-C , 19-H ) :   0.9606 B(  2-C ,  3-C ) :   1.3076
B(  2-C , 17-Cl) :   1.0870 B(  3-C ,  4-C ) :   1.4066 B(  3-C , 16-Cl) :   1.0794
B(  4-C ,  5-C ) :   1.3742 B(  4-C , 20-H ) :   0.9612 B(  5-C ,  6-C ) :   0.8174
B(  6-C ,  7-C ) :   1.3275 B(  6-C , 11-C ) :   1.3271 B(  7-C ,  8-C ) :   1.3364
B(  7-C , 15-Cl) :   1.2164 B(  8-C ,  9-C ) :   1.3904 B(  8-C , 14-Cl) :   1.0863
B(  9-C , 10-C ) :   1.3904 B(  9-C , 21-H ) :   0.9526 B( 10-C , 11-C ) :   1.3364
B( 10-C , 13-Cl) :   1.0854 B( 11-C , 12-Cl) :   1.2177

FINAL SINGLE POINT ENERGY     -3220.589617036689

DIPOLE MOMENT
-------------

Method             : SCF
Type of density    : Electron Density
Multiplicity       :   1
Irrep              :   0
Energy             : -3220.6003676660884594 Eh
Relativity type    :
Basis              : AO
                                X                 Y                 Z
Electronic contribution:     -0.438738106      -1.010759423       3.986117743
Nuclear contribution   :     -0.254213811       1.082878691      -4.399313950
                        -----------------------------------------
Total Dipole Moment    :     -0.692951917       0.072119268      -0.413196206
                        -----------------------------------------
Magnitude (a.u.)       :      0.810009045
Magnitude (Debye)      :      2.058879370

Rotational constants in cm-1:             0.012159             0.004624             0.003780
Rotational constants in MHz :           364.522760           138.612744           113.325743

                             ****ORCA TERMINATED NORMALLY****
TOTAL RUN TIME: 0 days 0 hours 12 minutes 15 seconds 704 msec
