                         Program Version 6.0.0  -   RELEASE  -
|  1> ! wb97x-v def2-tzvp def2/J RIJCOSX DEFGRID2 scfconv7 GCP(DFT/TZ) printgap
|  2> %output
|  3>     printlevel normal
|  4> end
|  5> %cpcm
|  6>     smd true
|  7>     smdsolvent "water"
|  8> end
|  9> * xyz 0 1
| 10> C 1.2362019730132334 0.441940813610939 -1.5610653740377962
| 11> C 2.613477015711325 0.5367804306550014 -1.7006813657655921
| 12> C 3.4400952885338865 0.3012642820304623 -0.606754745530594
| 13> C 2.8831231508149493 -0.029541053330961003 0.6300902215463084
| 14> C 1.5036910575035087 -0.12559139775936617 0.771216805023773
| 15> C 0.6801727908498263 0.1105394954171213 -0.32611646556611196
| 16> C -0.7933571996207962 0.007477278238674237 -0.171998486358929
| 17> C -1.5569147604804219 1.1312003729969413 0.16149746820596128
| 18> C -2.9426438568668436 1.0314250982127766 0.3019067784905279
| 19> C -3.58161158085025 -0.18489730958699574 0.11301700321653098
| 20> C -2.8345504208561985 -1.3054363401962146 -0.217901347875708
| 21> C -1.4484305968970652 -1.2141978575423125 -0.36056626243319395
| 22> Cl -0.5147503353088231 -2.6201209626394646 -0.778733455170957
| 23> Cl -3.6641911782734917 -2.8167283201830275 -0.4506179859547713
| 24> Cl -3.906359242569819 2.4194255146379526 0.715787622279182
| 25> Cl -0.7583879168234331 2.656904869615593 0.4016495982336665
| 26> Cl 3.8936129295323227 -0.33018636680896885 2.0208378583419084
| 27> Cl 5.168620189946191 0.4254276606429184 -0.8087509443211307
| 28> H 0.5942277521589568 0.6261555937859558 -2.415660328174265
| 29> H 3.0516120268041522 0.7938137868904784 -2.6584164378589317
| 30> H 1.0754788515103137 -0.38356407606755377 1.73348615246466
| 31> H -4.656700796675228 -0.2591212314415069 0.22253972068931155
| 32> *
| 33>
| 34>                          ****END OF INPUT****

CARTESIAN COORDINATES (ANGSTROEM)
---------------------------------
  C      1.236202    0.441941   -1.561065
  C      2.613477    0.536780   -1.700681
  C      3.440095    0.301264   -0.606755
  C      2.883123   -0.029541    0.630090
  C      1.503691   -0.125591    0.771217
  C      0.680173    0.110539   -0.326116
  C     -0.793357    0.007477   -0.171998
  C     -1.556915    1.131200    0.161497
  C     -2.942644    1.031425    0.301907
  C     -3.581612   -0.184897    0.113017
  C     -2.834550   -1.305436   -0.217901
  C     -1.448431   -1.214198   -0.360566
  Cl    -0.514750   -2.620121   -0.778733
  Cl    -3.664191   -2.816728   -0.450618
  Cl    -3.906359    2.419426    0.715788
  Cl    -0.758388    2.656905    0.401650
  Cl     3.893613   -0.330186    2.020838
  Cl     5.168620    0.425428   -0.808751
  H      0.594228    0.626156   -2.415660
  H      3.051612    0.793814   -2.658416
  H      1.075479   -0.383564    1.733486
  H     -4.656701   -0.259121    0.222540

 Total Charge           Charge          ....    0
 Multiplicity           Mult            ....    1
 Number of Electrons    NEL             ....  178
 Basis Dimension        Dim             ....  618

ORBITAL ENERGIES
----------------

  NO   OCC          E(Eh)            E(eV)
   0   2.0000    -107.163307     -2916.0618
   1   2.0000    -107.163279     -2916.0611
   2   2.0000    -107.162962     -2916.0525
   3   2.0000    -107.162935     -2916.0517
   4   2.0000    -107.157184     -2915.8952
   5   2.0000    -107.156925     -2915.8882
   6   2.0000     -12.145511      -330.4962
   7   2.0000     -12.145003      -330.4823
   8   2.0000     -12.142732      -330.4205
   9   2.0000     -12.142527      -330.4150
  10   2.0000     -12.134031      -330.1838
  11   2.0000     -12.131811      -330.1234
  12   2.0000     -12.106095      -329.4236
  13   2.0000     -12.088829      -328.9538
  14   2.0000     -12.087040      -328.9051
  15   2.0000     -12.076126      -328.6081
  16   2.0000     -12.073857      -328.5464
  17   2.0000     -12.069603      -328.4306
  18   2.0000     -11.316397      -307.9348
  19   2.0000     -11.316332      -307.9330
  20   2.0000     -11.316033      -307.9249
  21   2.0000     -11.316008      -307.9242
  22   2.0000     -11.310286      -307.7685
  23   2.0000     -11.310040      -307.7618
  24   2.0000      -9.108503      -247.8550
  25   2.0000      -9.107999      -247.8412
  26   2.0000      -9.107631      -247.8312
  27   2.0000      -9.107307      -247.8224
  28   2.0000      -9.105510      -247.7735
  29   2.0000      -9.105428      -247.7713
  30   2.0000      -9.105337      -247.7688
  31   2.0000      -9.105305      -247.7679
  32   2.0000      -9.104890      -247.7566
  33   2.0000      -9.104708      -247.7517
  34   2.0000      -9.104566      -247.7478
  35   2.0000      -9.104467      -247.7451
  36   2.0000      -9.102108      -247.6810
  37   2.0000      -9.101423      -247.6623
  38   2.0000      -9.099472      -247.6092
  39   2.0000      -9.099166      -247.6009
  40   2.0000      -9.098916      -247.5941
  41   2.0000      -9.098558      -247.5843
  42   2.0000      -1.485466       -40.4216
  43   2.0000      -1.463217       -39.8162
  44   2.0000      -1.457836       -39.6697
  45   2.0000      -1.436573       -39.0911
  46   2.0000      -1.428208       -38.8635
  47   2.0000      -1.423260       -38.7289
  48   2.0000      -1.396374       -37.9973
  49   2.0000      -1.376173       -37.4476
  50   2.0000      -1.325476       -36.0680
  51   2.0000      -1.293342       -35.1936
  52   2.0000      -1.281090       -34.8602
  53   2.0000      -1.275900       -34.7190
  54   2.0000      -1.174541       -31.9609
  55   2.0000      -1.137957       -30.9654
  56   2.0000      -1.135007       -30.8851
  57   2.0000      -1.114221       -30.3195
  58   2.0000      -1.033194       -28.1146
  59   2.0000      -1.017424       -27.6855
  60   2.0000      -0.999452       -27.1965
  61   2.0000      -0.991598       -26.9827
  62   2.0000      -0.976279       -26.5659
  63   2.0000      -0.958886       -26.0926
  64   2.0000      -0.951870       -25.9017
  65   2.0000      -0.933680       -25.4067
  66   2.0000      -0.912103       -24.8196
  67   2.0000      -0.905741       -24.6465
  68   2.0000      -0.895726       -24.3739
  69   2.0000      -0.875962       -23.8361
  70   2.0000      -0.874545       -23.7976
  71   2.0000      -0.854948       -23.2643
  72   2.0000      -0.848092       -23.0778
  73   2.0000      -0.845687       -23.0123
  74   2.0000      -0.826782       -22.4979
  75   2.0000      -0.821136       -22.3442
  76   2.0000      -0.818627       -22.2760
  77   2.0000      -0.818036       -22.2599
  78   2.0000      -0.813605       -22.1393
  79   2.0000      -0.809447       -22.0262
  80   2.0000      -0.806546       -21.9472
  81   2.0000      -0.806507       -21.9462
  82   2.0000      -0.800535       -21.7837
  83   2.0000      -0.778483       -21.1836
  84   2.0000      -0.773431       -21.0461
  85   2.0000      -0.684389       -18.6232
  86   2.0000      -0.679998       -18.5037
  87   2.0000      -0.673354       -18.3229
  88   2.0000      -0.665585       -18.1115
  89   0.0000      -0.326122        -8.8742
  90   0.0000      -0.309783        -8.4296
  91   0.0000      -0.302290        -8.2257
  92   0.0000      -0.293722        -7.9926
  93   0.0000      -0.291671        -7.9368

MULLIKEN ATOMIC CHARGES
-----------------------
   0 C :   -0.176090
   1 C :   -0.225938
   2 C :    0.109204
   3 C :    0.088844
   4 C :   -0.234946
   5 C :    0.099215
   6 C :    0.114918
   7 C :    0.032911
   8 C :    0.043638
   9 C :   -0.255778
  10 C :    0.044184
  11 C :    0.032199
  12 Cl:   -0.052263
  13 Cl:   -0.062668
  14 Cl:   -0.062554
  15 Cl:   -0.052387
  16 Cl:   -0.080095
  17 Cl:   -0.081618
  18 H :    0.177145
  19 H :    0.176532
  20 H :    0.179887
  21 H :    0.185661
Sum of atomic charges:   -0.0000000

LOEWDIN ATOMIC CHARGES
----------------------
   0 C :   -0.083098
   1 C :   -0.123975
   2 C :   -0.426756
   3 C :   -0.425702
   4 C :   -0.090564
   5 C :   -0.131421
   6 C :   -0.101169
   7 C :   -0.382712
   8 C :   -0.423640
   9 C :   -0.123753
  10 C :   -0.423620
  11 C :   -0.382707
  12 Cl:    0.431558
  13 Cl:    0.407180
  14 Cl:    0.407142
  15 Cl:    0.431667
  16 Cl:    0.387246
  17 Cl:    0.386540
  18 H :    0.167170
  19 H :    0.162769
  20 H :    0.168929
  21 H :    0.168913

  Mayer bond orders larger than 0.100000
B(  0-C ,  1-C ) :   1.4430 B(  0-C ,  5-C ) :   1.3499 B(  0-C , 18-H ) :   0.9761
B(  1-C ,  2-C ) :   1.3581 B(  1-C , 19-H ) :   0.9629 B(  2-C ,  3-C ) :   1.3001
B(  2-C , 17-Cl) :   1.0686 B(  3-C ,  4-C ) :   1.3833 B(  3-C , 16-Cl) :   1.0677
B(  4-C ,  5-C ) :   1.3775 B(  4-C , 20-H ) :   0.9662 B(  5-C ,  6-C ) :   0.8033
B(  6-C ,  7-C ) :   1.3350 B(  6-C , 11-C ) :   1.3347 B(  7-C ,  8-C ) :   1.3331
B(  7-C , 15-Cl) :   1.1752 B(  8-C ,  9-C ) :   1.3860 B(  8-C , 14-Cl) :   1.0745
B(  9-C , 10-C ) :   1.3865 B(  9-C , 21-H ) :   0.9477 B( 10-C , 11-C ) :   1.3331
B( 10-C , 13-Cl) :   1.0735 B( 11-C , 12-Cl) :   1.1763

FINAL SINGLE POINT ENERGY     -3220.591835247341

DIPOLE MOMENT
-------------

Method             : SCF
Type of density    : Electron Density
Multiplicity       :   1
Irrep              :   0
Energy             : -3220.6025858767407044 Eh
Relativity type    :
Basis              : AO
                                X                 Y                 Z
Electronic contribution:     -0.867213378      -0.980017909       3.788144475
Nuclear contribution   :     -0.254213811       1.082878691      -4.399313950
                        -----------------------------------------
Total Dipole Moment    :     -1.121427189       0.102860781      -0.611169474
                        -----------------------------------------
Magnitude (a.u.)       :      1.281291304
Magnitude (Debye)      :      3.256783675

Rotational constants in cm-1:             0.012159             0.004624             0.003780
Rotational constants in MHz :           364.522760           138.612744           113.325743

                             ****ORCA TERMINATED NORMALLY****
TOTAL RUN TIME: 0 days 0 hours 12 minutes 38 seconds 709 msec
