                         Program Version 6.0.0  -   RELEASE  -
|  1> ! pbe def2-sv(p) def2/J RI DEFGRID1 loosescf d4 GCP(DFT/SV(P)) printgap
|  2> %output
|  3>     printlevel normal
|  4> end
|  5> * xyz 0 1
|  6> C -3.2943692738 0.3690428968 -0.561306478
|  7> C -1.874368477 0.4933560067 -0.1205334343
|  8> C -1.108818531 1.5621092972 -0.3061136054
|  9> C 0.3157714416 1.5245147032 0.1482873812
| 10> C 0.9462174749 0.2362618604 -0.404383587
| 11> H 0.8587029539 0.29449392 -1.4950016611
| 12> C 0.1510495597 -0.9980232519 0.0739574202
| 13> C -1.2517811968 -0.6592177273 0.6302955081
| 14> H -1.1366797995 -0.3355579338 1.6810215584
| 15> O -2.0991142797 -1.7900237128 0.5850876539
| 16> C 2.4098908917 0.0621037435 -0.0728594118
| 17> C 3.0080943381 0.6178375813 0.9685565954
| 18> C 3.1520646232 -0.8328158694 -1.0210675216
| 19> H -3.6138405922 1.2691636856 -1.0785910364
| 20> H -3.9383576361 0.1958082159 0.2993809187
| 21> H -3.4014304074 -0.489869689 -1.221264619
| 22> H -1.4766074386 2.4401842198 -0.8131623574
| 23> H 0.8704236349 2.39199985 -0.2074596222
| 24> H 0.3543374348 1.5129704903 1.2407202901
| 25> H 0.0080005018 -1.6892005262 -0.7585243162
| 26> H 0.7157189881 -1.5162873995 0.8526614101
| 27> H -1.7095747843 -2.4980628361 1.113579933
| 28> H 4.0522756422 0.4464761022 1.1703596897
| 29> H 2.4984465261 1.2643812448 1.6601645141
| 30> H 2.6573133494 -1.7996425903 -1.0939695826
| 31> H 3.1648020644 -0.3915491682 -2.0167939853
| 32> H 4.1768024723 -0.9850311255 -0.6940983882
| 33> *
| 34>
| 35>                          ****END OF INPUT****

CARTESIAN COORDINATES (ANGSTROEM)
---------------------------------
  C     -3.294369    0.369043   -0.561306
  C     -1.874368    0.493356   -0.120533
  C     -1.108819    1.562109   -0.306114
  C      0.315771    1.524515    0.148287
  C      0.946217    0.236262   -0.404384
  H      0.858703    0.294494   -1.495002
  C      0.151050   -0.998023    0.073957
  C     -1.251781   -0.659218    0.630296
  H     -1.136680   -0.335558    1.681022
  O     -2.099114   -1.790024    0.585088
  C      2.409891    0.062104   -0.072859
  C      3.008094    0.617838    0.968557
  C      3.152065   -0.832816   -1.021068
  H     -3.613841    1.269164   -1.078591
  H     -3.938358    0.195808    0.299381
  H     -3.401430   -0.489870   -1.221265
  H     -1.476607    2.440184   -0.813162
  H      0.870424    2.392000   -0.207460
  H      0.354337    1.512970    1.240720
  H      0.008001   -1.689201   -0.758524
  H      0.715719   -1.516287    0.852661
  H     -1.709575   -2.498063    1.113580
  H      4.052276    0.446476    1.170360
  H      2.498447    1.264381    1.660165
  H      2.657313   -1.799643   -1.093970
  H      3.164802   -0.391549   -2.016794
  H      4.176802   -0.985031   -0.694098

 Total Charge           Charge          ....    0
 Multiplicity           Mult            ....    1
 Number of Electrons    NEL             ....   84
 Basis Dimension        Dim             ....  186

ORBITAL ENERGIES
----------------

  NO   OCC          E(Eh)            E(eV)
   0   2.0000     -18.746401      -510.1155
   1   2.0000      -9.941140      -270.5122
   2   2.0000      -9.899854      -269.3887
   3   2.0000      -9.897544      -269.3259
   4   2.0000      -9.888164      -269.0706
   5   2.0000      -9.886532      -269.0262
   6   2.0000      -9.885092      -268.9870
   7   2.0000      -9.879927      -268.8465
   8   2.0000      -9.873291      -268.6659
   9   2.0000      -9.870117      -268.5795
  10   2.0000      -9.866310      -268.4759
  11   2.0000      -0.925095       -25.1731
  12   2.0000      -0.765895       -20.8411
  13   2.0000      -0.722066       -19.6484
  14   2.0000      -0.672508       -18.2999
  15   2.0000      -0.655093       -17.8260
  16   2.0000      -0.611734       -16.6461
  17   2.0000      -0.605702       -16.4820
  18   2.0000      -0.555061       -15.1040
  19   2.0000      -0.535079       -14.5602
  20   2.0000      -0.473369       -12.8810
  21   2.0000      -0.469917       -12.7871
  22   2.0000      -0.440204       -11.9786
  23   2.0000      -0.428435       -11.6583
  24   2.0000      -0.406887       -11.0719
  25   2.0000      -0.399490       -10.8707
  26   2.0000      -0.385480       -10.4894
  27   2.0000      -0.374703       -10.1962
  28   2.0000      -0.366139        -9.9631
  29   2.0000      -0.360403        -9.8071
  30   2.0000      -0.350025        -9.5247
  31   2.0000      -0.342119        -9.3095
  32   2.0000      -0.326436        -8.8828
  33   2.0000      -0.325434        -8.8555
  34   2.0000      -0.311361        -8.4726
  35   2.0000      -0.296755        -8.0751
  36   2.0000      -0.291490        -7.9319
  37   2.0000      -0.285038        -7.7563
  38   2.0000      -0.256714        -6.9855
  39   2.0000      -0.226027        -6.1505
  40   2.0000      -0.216492        -5.8910
  41   2.0000      -0.194770        -5.3000
  42   0.0000      -0.011199        -0.3048
  43   0.0000      -0.004941        -0.1344
  44   0.0000       0.027970         0.7611
  45   0.0000       0.037884         1.0309
  46   0.0000       0.057237         1.5575

MULLIKEN ATOMIC CHARGES
-----------------------
   0 C :   -0.181695
   1 C :   -0.093202
   2 C :   -0.216471
   3 C :   -0.008856
   4 C :   -0.166659
   5 H :    0.064644
   6 C :   -0.117672
   7 C :    0.105630
   8 H :    0.065301
   9 O :   -0.410457
  10 C :   -0.044048
  11 C :   -0.240741
  12 C :   -0.209544
  13 H :    0.090932
  14 H :    0.106481
  15 H :    0.112125
  16 H :    0.039471
  17 H :    0.083307
  18 H :    0.087227
  19 H :    0.082908
  20 H :    0.072672
  21 H :    0.300272
  22 H :    0.078628
  23 H :    0.088198
  24 H :    0.107638
  25 H :    0.108364
  26 H :    0.095548
Sum of atomic charges:    0.0000000

LOEWDIN ATOMIC CHARGES
----------------------
   0 C :   -0.320207
   1 C :   -0.068904
   2 C :   -0.158956
   3 C :   -0.212577
   4 C :   -0.126005
   5 H :    0.124226
   6 C :   -0.225139
   7 C :   -0.038152
   8 H :    0.108106
   9 O :   -0.320443
  10 C :   -0.050447
  11 C :   -0.275404
  12 C :   -0.321400
  13 H :    0.120566
  14 H :    0.130616
  15 H :    0.132242
  16 H :    0.116978
  17 H :    0.123666
  18 H :    0.123786
  19 H :    0.122075
  20 H :    0.117076
  21 H :    0.286811
  22 H :    0.117104
  23 H :    0.116248
  24 H :    0.126224
  25 H :    0.129160
  26 H :    0.122747

  Mayer bond orders larger than 0.100000
B(  0-C ,  1-C ) :   1.1512 B(  0-C , 13-H ) :   0.9396 B(  0-C , 14-H ) :   0.9272
B(  0-C , 15-H ) :   0.9242 B(  1-C ,  2-C ) :   1.8680 B(  1-C ,  7-C ) :   1.0377
B(  2-C ,  3-C ) :   1.0690 B(  2-C , 16-H ) :   0.9489 B(  3-C ,  4-C ) :   1.1443
B(  3-C , 17-H ) :   0.9116 B(  3-C , 18-H ) :   0.8516 B(  4-C ,  5-H ) :   0.8742
B(  4-C ,  6-C ) :   1.0613 B(  4-C , 10-C ) :   0.9884 B(  6-C ,  7-C ) :   1.1036
B(  6-C , 19-H ) :   0.8955 B(  6-C , 20-H ) :   0.8957 B(  7-C ,  8-H ) :   0.8646
B(  7-C ,  9-O ) :   1.1015 B(  9-O , 21-H ) :   0.8491 B( 10-C , 11-C ) :   2.0431
B( 10-C , 12-C ) :   1.1212 B( 11-C , 22-H ) :   0.8997 B( 11-C , 23-H ) :   0.9031
B( 12-C , 24-H ) :   0.9327 B( 12-C , 25-H ) :   0.9291 B( 12-C , 26-H ) :   0.9398

Dispersion correction           -0.028183548
FINAL SINGLE POINT ENERGY      -464.784959157651

DIPOLE MOMENT
-------------

Method             : SCF
Type of density    : Electron Density
Multiplicity       :   1
Irrep              :   0
Energy             :  -464.8751417796516989 Eh
Relativity type    :
Basis              : AO
                                X                 Y                 Z
Electronic contribution:     -3.501367995      -0.367859024       1.433622201
Nuclear contribution   :      3.796904536       0.076913822      -1.268147196
                        -----------------------------------------
Total Dipole Moment    :      0.295536541      -0.290945202       0.165475005
                        -----------------------------------------
Magnitude (a.u.)       :      0.446511965
Magnitude (Debye)      :      1.134943221

Rotational constants in cm-1:             0.069898             0.022273             0.019324
Rotational constants in MHz :          2095.478573           667.730628           579.326109

                             ****ORCA TERMINATED NORMALLY****
TOTAL RUN TIME: 0 days 0 hours 0 minutes 12 seconds 46 msec
