                         Program Version 6.0.0  -   RELEASE  -
|  1> ! pbe def2-sv(p) def2/J RI DEFGRID1 loosescf d4 GCP(DFT/SV(P)) printgap
|  2> %output
|  3>     printlevel normal
|  4> end
|  5> * xyz 0 1
|  6> C -2.5620866976 -0.8786508974 0.2577907052
|  7> C -1.1388560765 -0.4311676994 0.6181631338
|  8> H -1.0482031179 -0.3588101478 1.7128380399
|  9> C -0.8285319982 0.9476189186 0.0212967123
| 10> H -1.0502648428 0.928989939 -1.0557366796
| 11> C 0.6567774152 1.2822415444 0.2102096964
| 12> H 0.8414580279 1.4252212992 1.2899441903
| 13> C 1.5435434403 0.1362008883 -0.2988613914
| 14> H 1.4174706478 0.0277849163 -1.3812878211
| 15> C 1.1030879235 -1.1753527421 0.3690988839
| 16> H 1.2555031098 -1.0859175873 1.4692046467
| 17> O -0.2606199915 -1.4247286069 0.122099829
| 18> O 1.8347688918 -2.2197791497 -0.1523833894
| 19> O 2.9004470007 0.4308304911 -0.1000882126
| 20> O 0.9277037667 2.4802604277 -0.4761806967
| 21> O -1.6434032887 1.8826344069 0.6805450745
| 22> O -2.7307682319 -1.0515731436 -1.1236496517
| 23> H -3.2590111192 -0.0985728628 0.566470132
| 24> H -2.7858358028 -1.808157811 0.7948349977
| 25> H 1.4262477336 -3.0642480658 0.0964831561
| 26> H 3.144408792 0.294304565 0.8271192054
| 27> H 1.8873978508 2.5610969258 -0.5899327156
| 28> H -1.4465757382 2.7619979515 0.3239167432
| 29> H -2.0922441491 -1.7142796157 -1.4260580813
| 30> *
| 31>
| 32>                          ****END OF INPUT****

CARTESIAN COORDINATES (ANGSTROEM)
---------------------------------
  C     -2.562087   -0.878651    0.257791
  C     -1.138856   -0.431168    0.618163
  H     -1.048203   -0.358810    1.712838
  C     -0.828532    0.947619    0.021297
  H     -1.050265    0.928990   -1.055737
  C      0.656777    1.282242    0.210210
  H      0.841458    1.425221    1.289944
  C      1.543543    0.136201   -0.298861
  H      1.417471    0.027785   -1.381288
  C      1.103088   -1.175353    0.369099
  H      1.255503   -1.085918    1.469205
  O     -0.260620   -1.424729    0.122100
  O      1.834769   -2.219779   -0.152383
  O      2.900447    0.430830   -0.100088
  O      0.927704    2.480260   -0.476181
  O     -1.643403    1.882634    0.680545
  O     -2.730768   -1.051573   -1.123650
  H     -3.259011   -0.098573    0.566470
  H     -2.785836   -1.808158    0.794835
  H      1.426248   -3.064248    0.096483
  H      3.144409    0.294305    0.827119
  H      1.887398    2.561097   -0.589933
  H     -1.446576    2.761998    0.323917
  H     -2.092244   -1.714280   -1.426058

 Total Charge           Charge          ....    0
 Multiplicity           Mult            ....    1
 Number of Electrons    NEL             ....   96
 Basis Dimension        Dim             ....  192

ORBITAL ENERGIES
----------------

  NO   OCC          E(Eh)            E(eV)
   0   2.0000     -18.785420      -511.1773
   1   2.0000     -18.768813      -510.7254
   2   2.0000     -18.766620      -510.6657
   3   2.0000     -18.754210      -510.3280
   4   2.0000     -18.751513      -510.2546
   5   2.0000     -18.746568      -510.1201
   6   2.0000      -9.999536      -272.1012
   7   2.0000      -9.947696      -270.6906
   8   2.0000      -9.946880      -270.6684
   9   2.0000      -9.942084      -270.5379
  10   2.0000      -9.939918      -270.4789
  11   2.0000      -9.929983      -270.2086
  12   2.0000      -0.995327       -27.0842
  13   2.0000      -0.950870       -25.8745
  14   2.0000      -0.940731       -25.5986
  15   2.0000      -0.927962       -25.2511
  16   2.0000      -0.917443       -24.9649
  17   2.0000      -0.915549       -24.9134
  18   2.0000      -0.705420       -19.1955
  19   2.0000      -0.696527       -18.9535
  20   2.0000      -0.621423       -16.9098
  21   2.0000      -0.585236       -15.9251
  22   2.0000      -0.566972       -15.4281
  23   2.0000      -0.538341       -14.6490
  24   2.0000      -0.514481       -13.9997
  25   2.0000      -0.492173       -13.3927
  26   2.0000      -0.467749       -12.7281
  27   2.0000      -0.462138       -12.5754
  28   2.0000      -0.448070       -12.1926
  29   2.0000      -0.439192       -11.9510
  30   2.0000      -0.429353       -11.6833
  31   2.0000      -0.412584       -11.2270
  32   2.0000      -0.380248       -10.3471
  33   2.0000      -0.370650       -10.0859
  34   2.0000      -0.366537        -9.9740
  35   2.0000      -0.356059        -9.6889
  36   2.0000      -0.329783        -8.9739
  37   2.0000      -0.316071        -8.6007
  38   2.0000      -0.305396        -8.3102
  39   2.0000      -0.297114        -8.0849
  40   2.0000      -0.289167        -7.8686
  41   2.0000      -0.275415        -7.4944
  42   2.0000      -0.257908        -7.0180
  43   2.0000      -0.253986        -6.9113
  44   2.0000      -0.237395        -6.4598
  45   2.0000      -0.218852        -5.9553
  46   2.0000      -0.216743        -5.8979
  47   2.0000      -0.209417        -5.6985
  48   0.0000       0.009362         0.2548
  49   0.0000       0.022671         0.6169
  50   0.0000       0.036167         0.9842
  51   0.0000       0.041262         1.1228
  52   0.0000       0.050788         1.3820

MULLIKEN ATOMIC CHARGES
-----------------------
   0 C :    0.097980
   1 C :   -0.020918
   2 H :    0.056366
   3 C :    0.072284
   4 H :    0.059169
   5 C :    0.072200
   6 H :    0.032444
   7 C :    0.039474
   8 H :    0.076015
   9 C :    0.178132
  10 H :    0.020712
  11 O :   -0.326377
  12 O :   -0.365877
  13 O :   -0.410580
  14 O :   -0.423910
  15 O :   -0.421323
  16 O :   -0.438028
  17 H :    0.099126
  18 H :    0.075661
  19 H :    0.307112
  20 H :    0.301961
  21 H :    0.306121
  22 H :    0.313613
  23 H :    0.298645
Sum of atomic charges:   -0.0000000

LOEWDIN ATOMIC CHARGES
----------------------
   0 C :   -0.121851
   1 C :   -0.070668
   2 H :    0.106382
   3 C :   -0.068595
   4 H :    0.109080
   5 C :   -0.085358
   6 H :    0.092985
   7 C :   -0.092298
   8 H :    0.125522
   9 C :   -0.002001
  10 H :    0.071674
  11 O :   -0.156102
  12 O :   -0.291006
  13 O :   -0.304474
  14 O :   -0.328111
  15 O :   -0.317409
  16 O :   -0.329826
  17 H :    0.125635
  18 H :    0.098775
  19 H :    0.290731
  20 H :    0.287429
  21 H :    0.285584
  22 H :    0.293301
  23 H :    0.280601

  Mayer bond orders larger than 0.100000
B(  0-C ,  1-C ) :   1.0476 B(  0-C , 16-O ) :   1.0658 B(  0-C , 17-H ) :   0.9123
B(  0-C , 18-H ) :   0.9176 B(  1-C ,  2-H ) :   0.8694 B(  1-C ,  3-C ) :   1.0098
B(  1-C , 11-O ) :   0.9806 B(  3-C ,  4-H ) :   0.8642 B(  3-C ,  5-C ) :   1.0153
B(  3-C , 15-O ) :   1.0569 B(  5-C ,  6-H ) :   0.8659 B(  5-C ,  7-C ) :   0.9916
B(  5-C , 14-O ) :   1.0940 B(  7-C ,  8-H ) :   0.8585 B(  7-C ,  9-C ) :   0.9875
B(  7-C , 13-O ) :   1.0301 B(  9-C , 10-H ) :   0.8782 B(  9-C , 11-O ) :   1.0051
B(  9-C , 12-O ) :   1.1995 B( 12-O , 19-H ) :   0.8386 B( 13-O , 20-H ) :   0.8449
B( 14-O , 21-H ) :   0.8292 B( 15-O , 22-H ) :   0.8384 B( 16-O , 23-H ) :   0.8421

Dispersion correction           -0.023926874
FINAL SINGLE POINT ENERGY      -685.701211012919

DIPOLE MOMENT
-------------

Method             : SCF
Type of density    : Electron Density
Multiplicity       :   1
Irrep              :   0
Energy             :  -685.8311183843757135 Eh
Relativity type    :
Basis              : AO
                                X                 Y                 Z
Electronic contribution:      2.223965043      -0.305415645      -1.593954497
Nuclear contribution   :     -1.588710041      -0.121069546       2.449769373
                        -----------------------------------------
Total Dipole Moment    :      0.635255003      -0.426485192       0.855814877
                        -----------------------------------------
Magnitude (a.u.)       :      1.147979808
Magnitude (Debye)      :      2.917932781

Rotational constants in cm-1:             0.038953             0.027170             0.017840
Rotational constants in MHz :          1167.790753           814.545908           534.817854

                             ****ORCA TERMINATED NORMALLY****
TOTAL RUN TIME: 0 days 0 hours 0 minutes 11 seconds 997 msec
