                         Program Version 6.0.0  -   RELEASE  -
|  1> ! wb97x-v def2-tzvp def2/J RIJCOSX DEFGRID2 scfconv7 GCP(DFT/TZ) printgap
|  2> %output
|  3>     printlevel normal
|  4> end
|  5> * xyz 0 1
|  6> C 0.7264635070657842 -1.2050080392320623 0.23011318963021044
|  7> C -0.7266505749493986 -1.2049401929640013 -0.2299167857048585
|  8> N -1.472917893367684 0.00015215098670996096 0.18834460941540432
|  9> C -0.72653728610588 1.2051797711311711 -0.2299091628140142
| 10> C 0.7266432539435429 1.2050992964954652 0.22995322685318273
| 11> N 1.4728614158455964 -3.867970239459506e-05 -0.18827721924280505
| 12> H 1.2408338138435966 -2.093799399636627 -0.15401201837665707
| 13> H 0.7585911869866782 -1.2601598756797963 1.327111585824523
| 14> H -0.7587758545382501 -1.260210110632164 -1.326909687020289
| 15> H -1.2411301159603143 -2.093629489671329 0.15430110087904225
| 16> H -1.4716917393147264 0.00014462537604161365 1.2078689797499114
| 17> H -0.7588070638230165 1.26056113106908 -1.3268903437825375
| 18> H -1.2408594740625178 2.0938942991770175 0.15446583846643977
| 19> H 1.241075978846956 2.093743257511961 -0.15443489164874905
| 20> H 0.7589220900813837 1.2604868252596093 1.3269335918455551
| 21> H 1.4715498848129187 -0.00011230053509927829 -1.2078017709627655
| 22> *
| 23>
| 24>                          ****END OF INPUT****

CARTESIAN COORDINATES (ANGSTROEM)
---------------------------------
  C      0.726464   -1.205008    0.230113
  C     -0.726651   -1.204940   -0.229917
  N     -1.472918    0.000152    0.188345
  C     -0.726537    1.205180   -0.229909
  C      0.726643    1.205099    0.229953
  N      1.472861   -0.000039   -0.188277
  H      1.240834   -2.093799   -0.154012
  H      0.758591   -1.260160    1.327112
  H     -0.758776   -1.260210   -1.326910
  H     -1.241130   -2.093629    0.154301
  H     -1.471692    0.000145    1.207869
  H     -0.758807    1.260561   -1.326890
  H     -1.240859    2.093894    0.154466
  H      1.241076    2.093743   -0.154435
  H      0.758922    1.260487    1.326934
  H      1.471550   -0.000112   -1.207802

 Total Charge           Charge          ....    0
 Multiplicity           Mult            ....    1
 Number of Electrons    NEL             ....   48
 Basis Dimension        Dim             ....  246

ORBITAL ENERGIES
----------------

  NO   OCC          E(Eh)            E(eV)
   0   2.0000     -16.512726      -449.3341
   1   2.0000     -16.512684      -449.3330
   2   2.0000     -12.066323      -328.3414
   3   2.0000     -12.065963      -328.3316
   4   2.0000     -12.064988      -328.3050
   5   2.0000     -12.064960      -328.3043
   6   2.0000      -1.484614       -40.3984
   7   2.0000      -1.445801       -39.3422
   8   2.0000      -1.273585       -34.6560
   9   2.0000      -1.184982       -32.2450
  10   2.0000      -1.137793       -30.9609
  11   2.0000      -1.069800       -29.1107
  12   2.0000      -0.970889       -26.4192
  13   2.0000      -0.925871       -25.1942
  14   2.0000      -0.912861       -24.8402
  15   2.0000      -0.911806       -24.8115
  16   2.0000      -0.905227       -24.6325
  17   2.0000      -0.848996       -23.1024
  18   2.0000      -0.831237       -22.6191
  19   2.0000      -0.797940       -21.7130
  20   2.0000      -0.789003       -21.4699
  21   2.0000      -0.769822       -20.9479
  22   2.0000      -0.765159       -20.8210
  23   2.0000      -0.695601       -18.9283
  24   0.0000      -0.113740        -3.0950
  25   0.0000      -0.061470        -1.6727
  26   0.0000      -0.056298        -1.5319
  27   0.0000      -0.048617        -1.3229
  28   0.0000      -0.039747        -1.0816

MULLIKEN ATOMIC CHARGES
-----------------------
   0 C :   -0.152013
   1 C :   -0.152005
   2 N :   -0.273836
   3 C :   -0.152010
   4 C :   -0.151992
   5 N :   -0.273829
   6 H :    0.108216
   7 H :    0.093119
   8 H :    0.093113
   9 H :    0.108215
  10 H :    0.175180
  11 H :    0.093119
  12 H :    0.108216
  13 H :    0.108216
  14 H :    0.093115
  15 H :    0.175176
Sum of atomic charges:   -0.0000000

LOEWDIN ATOMIC CHARGES
----------------------
   0 C :   -0.318941
   1 C :   -0.318943
   2 N :   -0.029841
   3 C :   -0.318941
   4 C :   -0.318940
   5 N :   -0.029842
   6 H :    0.127172
   7 H :    0.125821
   8 H :    0.125821
   9 H :    0.127173
  10 H :    0.161737
  11 H :    0.125819
  12 H :    0.127176
  13 H :    0.127175
  14 H :    0.125819
  15 H :    0.161737

  Mayer bond orders larger than 0.100000
B(  0-C ,  1-C ) :   0.9841 B(  0-C ,  5-N ) :   1.0085 B(  0-C ,  6-H ) :   0.9767
B(  0-C ,  7-H ) :   0.9766 B(  1-C ,  2-N ) :   1.0085 B(  1-C ,  8-H ) :   0.9766
B(  1-C ,  9-H ) :   0.9767 B(  2-N ,  3-C ) :   1.0085 B(  2-N , 10-H ) :   0.9373
B(  3-C ,  4-C ) :   0.9841 B(  3-C , 11-H ) :   0.9766 B(  3-C , 12-H ) :   0.9767
B(  4-C ,  5-N ) :   1.0085 B(  4-C , 13-H ) :   0.9767 B(  4-C , 14-H ) :   0.9766
B(  5-N , 15-H ) :   0.9373

FINAL SINGLE POINT ENERGY      -267.943241634632

DIPOLE MOMENT
-------------

Method             : SCF
Type of density    : Electron Density
Multiplicity       :   1
Irrep              :   0
Energy             :  -267.9546242376324017 Eh
Relativity type    :
Basis              : AO
                                X                 Y                 Z
Electronic contribution:      0.000016949      -0.000167488      -0.000063735
Nuclear contribution   :     -0.000049097       0.000155151       0.000106275
                        -----------------------------------------
Total Dipole Moment    :     -0.000032148      -0.000012337       0.000042540
                        -----------------------------------------
Magnitude (a.u.)       :      0.000054730
Magnitude (Debye)      :      0.000139112

Rotational constants in cm-1:             0.156787             0.149574             0.087399
Rotational constants in MHz :          4700.363220          4484.117433          2620.155516

                             ****ORCA TERMINATED NORMALLY****
TOTAL RUN TIME: 0 days 0 hours 1 minutes 11 seconds 80 msec
