                         Program Version 6.0.0  -   RELEASE  -
|  1> ! wb97x-v def2-tzvp def2/J RIJCOSX DEFGRID2 scfconv7 GCP(DFT/TZ) printgap
|  2> %output
|  3>     printlevel normal
|  4> end
|  5> %cpcm
|  6>     smd true
|  7>     smdsolvent "water"
|  8> end
|  9> * xyz 0 1
| 10> C 0.7264635070657842 -1.2050080392320623 0.23011318963021044
| 11> C -0.7266505749493986 -1.2049401929640013 -0.2299167857048585
| 12> N -1.472917893367684 0.00015215098670996096 0.18834460941540432
| 13> C -0.72653728610588 1.2051797711311711 -0.2299091628140142
| 14> C 0.7266432539435429 1.2050992964954652 0.22995322685318273
| 15> N 1.4728614158455964 -3.867970239459506e-05 -0.18827721924280505
| 16> H 1.2408338138435966 -2.093799399636627 -0.15401201837665707
| 17> H 0.7585911869866782 -1.2601598756797963 1.327111585824523
| 18> H -0.7587758545382501 -1.260210110632164 -1.326909687020289
| 19> H -1.2411301159603143 -2.093629489671329 0.15430110087904225
| 20> H -1.4716917393147264 0.00014462537604161365 1.2078689797499114
| 21> H -0.7588070638230165 1.26056113106908 -1.3268903437825375
| 22> H -1.2408594740625178 2.0938942991770175 0.15446583846643977
| 23> H 1.241075978846956 2.093743257511961 -0.15443489164874905
| 24> H 0.7589220900813837 1.2604868252596093 1.3269335918455551
| 25> H 1.4715498848129187 -0.00011230053509927829 -1.2078017709627655
| 26> *
| 27>
| 28>                          ****END OF INPUT****

CARTESIAN COORDINATES (ANGSTROEM)
---------------------------------
  C      0.726464   -1.205008    0.230113
  C     -0.726651   -1.204940   -0.229917
  N     -1.472918    0.000152    0.188345
  C     -0.726537    1.205180   -0.229909
  C      0.726643    1.205099    0.229953
  N      1.472861   -0.000039   -0.188277
  H      1.240834   -2.093799   -0.154012
  H      0.758591   -1.260160    1.327112
  H     -0.758776   -1.260210   -1.326910
  H     -1.241130   -2.093629    0.154301
  H     -1.471692    0.000145    1.207869
  H     -0.758807    1.260561   -1.326890
  H     -1.240859    2.093894    0.154466
  H      1.241076    2.093743   -0.154435
  H      0.758922    1.260487    1.326934
  H      1.471550   -0.000112   -1.207802

 Total Charge           Charge          ....    0
 Multiplicity           Mult            ....    1
 Number of Electrons    NEL             ....   48
 Basis Dimension        Dim             ....  246

ORBITAL ENERGIES
----------------

  NO   OCC          E(Eh)            E(eV)
   0   2.0000     -16.505853      -449.1471
   1   2.0000     -16.505802      -449.1457
   2   2.0000     -12.054987      -328.0329
   3   2.0000     -12.054626      -328.0231
   4   2.0000     -12.053644      -327.9963
   5   2.0000     -12.053608      -327.9954
   6   2.0000      -1.475805       -40.1587
   7   2.0000      -1.437930       -39.1281
   8   2.0000      -1.262422       -34.3522
   9   2.0000      -1.174265       -31.9534
  10   2.0000      -1.128430       -30.7061
  11   2.0000      -1.059413       -28.8281
  12   2.0000      -0.961567       -26.1656
  13   2.0000      -0.917142       -24.9567
  14   2.0000      -0.903134       -24.5755
  15   2.0000      -0.902790       -24.5662
  16   2.0000      -0.893678       -24.3182
  17   2.0000      -0.837959       -22.8020
  18   2.0000      -0.820108       -22.3163
  19   2.0000      -0.787003       -21.4154
  20   2.0000      -0.776885       -21.1401
  21   2.0000      -0.760548       -20.6956
  22   2.0000      -0.757898       -20.6235
  23   2.0000      -0.690126       -18.7793
  24   0.0000      -0.103926        -2.8280
  25   0.0000      -0.051870        -1.4115
  26   0.0000      -0.045187        -1.2296
  27   0.0000      -0.040819        -1.1107
  28   0.0000      -0.020705        -0.5634

MULLIKEN ATOMIC CHARGES
-----------------------
   0 C :   -0.151483
   1 C :   -0.151471
   2 N :   -0.379589
   3 C :   -0.151480
   4 C :   -0.151470
   5 N :   -0.379582
   6 H :    0.122226
   7 H :    0.108788
   8 H :    0.108780
   9 H :    0.122226
  10 H :    0.220519
  11 H :    0.108783
  12 H :    0.122227
  13 H :    0.122227
  14 H :    0.108781
  15 H :    0.220517
Sum of atomic charges:   -0.0000000

LOEWDIN ATOMIC CHARGES
----------------------
   0 C :   -0.318763
   1 C :   -0.318765
   2 N :   -0.056549
   3 C :   -0.318763
   4 C :   -0.318761
   5 N :   -0.056551
   6 H :    0.130401
   7 H :    0.129749
   8 H :    0.129749
   9 H :    0.130402
  10 H :    0.173776
  11 H :    0.129745
  12 H :    0.130405
  13 H :    0.130404
  14 H :    0.129745
  15 H :    0.173776

  Mayer bond orders larger than 0.100000
B(  0-C ,  1-C ) :   0.9910 B(  0-C ,  5-N ) :   0.9989 B(  0-C ,  6-H ) :   0.9688
B(  0-C ,  7-H ) :   0.9753 B(  1-C ,  2-N ) :   0.9989 B(  1-C ,  8-H ) :   0.9753
B(  1-C ,  9-H ) :   0.9688 B(  2-N ,  3-C ) :   0.9989 B(  2-N , 10-H ) :   0.9272
B(  3-C ,  4-C ) :   0.9910 B(  3-C , 11-H ) :   0.9753 B(  3-C , 12-H ) :   0.9688
B(  4-C ,  5-N ) :   0.9989 B(  4-C , 13-H ) :   0.9688 B(  4-C , 14-H ) :   0.9753
B(  5-N , 15-H ) :   0.9272

FINAL SINGLE POINT ENERGY      -267.962538606750

DIPOLE MOMENT
-------------

Method             : SCF
Type of density    : Electron Density
Multiplicity       :   1
Irrep              :   0
Energy             :  -267.9739212097497330 Eh
Relativity type    :
Basis              : AO
                                X                 Y                 Z
Electronic contribution:      0.000005489      -0.000169848      -0.000048957
Nuclear contribution   :     -0.000049097       0.000155151       0.000106275
                        -----------------------------------------
Total Dipole Moment    :     -0.000043608      -0.000014697       0.000057318
                        -----------------------------------------
Magnitude (a.u.)       :      0.000073505
Magnitude (Debye)      :      0.000186835

Rotational constants in cm-1:             0.156787             0.149574             0.087399
Rotational constants in MHz :          4700.363220          4484.117433          2620.155516

                             ****ORCA TERMINATED NORMALLY****
TOTAL RUN TIME: 0 days 0 hours 1 minutes 13 seconds 757 msec
