                         Program Version 6.0.0  -   RELEASE  -
|  1> ! pbe def2-sv(p) def2/J RI DEFGRID1 loosescf d4 GCP(DFT/SV(P)) printgap
|  2> %output
|  3>     printlevel normal
|  4> end
|  5> * xyz 0 1
|  6> C -2.5685355367 -0.6549008585 -0.3212083717
|  7> C -1.1816493412 -0.2973511986 0.2234855294
|  8> H -1.2325785703 -0.2244020614 1.3208157304
|  9> C -0.6979985363 1.0453418869 -0.3368946806
| 10> H -0.6900912379 0.9779315571 -1.4384576409
| 11> C 0.7340444062 1.3317459987 0.1523464214
| 12> H 0.7234584542 1.4597315353 1.2411783724
| 13> C 1.643419971 0.1513296767 -0.1948069018
| 14> H 1.7197933548 0.0539144986 -1.290115935
| 15> C 1.0180480394 -1.1526628712 0.3366219551
| 16> H 0.9959570526 -1.1037299925 1.4457558408
| 17> O -0.2920784763 -1.3373863213 -0.1457530364
| 18> O 1.8042102227 -2.196130767 -0.1088128513
| 19> O 2.9065360701 0.364367547 0.3746307218
| 20> O 1.1890917078 2.558671011 -0.3565085171
| 21> O -1.5794648534 2.054962603 0.0762056367
| 22> O -3.1395059757 -1.7556883711 0.3331864611
| 23> H -2.4830249446 -0.8400799573 -1.3986543696
| 24> H -3.2323304992 0.1931138734 -0.1477355975
| 25> H 1.3868784138 -3.0462823408 0.0991075428
| 26> H 3.4645702724 -0.4091404282 0.2007625525
| 27> H 1.4869183348 2.4524330194 -1.2717462327
| 28> H -1.1265656956 2.9093488329 -0.0187387216
| 29> H -2.5770830568 -2.5296031805 0.186240728
| 30> *
| 31>
| 32>                          ****END OF INPUT****

CARTESIAN COORDINATES (ANGSTROEM)
---------------------------------
  C     -2.568536   -0.654901   -0.321208
  C     -1.181649   -0.297351    0.223486
  H     -1.232579   -0.224402    1.320816
  C     -0.697999    1.045342   -0.336895
  H     -0.690091    0.977932   -1.438458
  C      0.734044    1.331746    0.152346
  H      0.723458    1.459732    1.241178
  C      1.643420    0.151330   -0.194807
  H      1.719793    0.053914   -1.290116
  C      1.018048   -1.152663    0.336622
  H      0.995957   -1.103730    1.445756
  O     -0.292078   -1.337386   -0.145753
  O      1.804210   -2.196131   -0.108813
  O      2.906536    0.364368    0.374631
  O      1.189092    2.558671   -0.356509
  O     -1.579465    2.054963    0.076206
  O     -3.139506   -1.755688    0.333186
  H     -2.483025   -0.840080   -1.398654
  H     -3.232330    0.193114   -0.147736
  H      1.386878   -3.046282    0.099108
  H      3.464570   -0.409140    0.200763
  H      1.486918    2.452433   -1.271746
  H     -1.126566    2.909349   -0.018739
  H     -2.577083   -2.529603    0.186241

 Total Charge           Charge          ....    0
 Multiplicity           Mult            ....    1
 Number of Electrons    NEL             ....   96
 Basis Dimension        Dim             ....  192

ORBITAL ENERGIES
----------------

  NO   OCC          E(Eh)            E(eV)
   0   2.0000     -18.781793      -511.0786
   1   2.0000     -18.778044      -510.9766
   2   2.0000     -18.763327      -510.5761
   3   2.0000     -18.756669      -510.3949
   4   2.0000     -18.753245      -510.3017
   5   2.0000     -18.743704      -510.0421
   6   2.0000      -9.995795      -271.9994
   7   2.0000      -9.949629      -270.7432
   8   2.0000      -9.948429      -270.7105
   9   2.0000      -9.944748      -270.6104
  10   2.0000      -9.944334      -270.5991
  11   2.0000      -9.927987      -270.1543
  12   2.0000      -0.995221       -27.0814
  13   2.0000      -0.952201       -25.9107
  14   2.0000      -0.940471       -25.5915
  15   2.0000      -0.927254       -25.2319
  16   2.0000      -0.920810       -25.0565
  17   2.0000      -0.916132       -24.9292
  18   2.0000      -0.708832       -19.2883
  19   2.0000      -0.696491       -18.9525
  20   2.0000      -0.619005       -16.8440
  21   2.0000      -0.587609       -15.9897
  22   2.0000      -0.564838       -15.3700
  23   2.0000      -0.540470       -14.7069
  24   2.0000      -0.516487       -14.0543
  25   2.0000      -0.496095       -13.4994
  26   2.0000      -0.474944       -12.9239
  27   2.0000      -0.455702       -12.4003
  28   2.0000      -0.445917       -12.1340
  29   2.0000      -0.443001       -12.0547
  30   2.0000      -0.425922       -11.5899
  31   2.0000      -0.408742       -11.1224
  32   2.0000      -0.391010       -10.6399
  33   2.0000      -0.371666       -10.1135
  34   2.0000      -0.368012       -10.0141
  35   2.0000      -0.353334        -9.6147
  36   2.0000      -0.327473        -8.9110
  37   2.0000      -0.321998        -8.7620
  38   2.0000      -0.308452        -8.3934
  39   2.0000      -0.301187        -8.1957
  40   2.0000      -0.284444        -7.7401
  41   2.0000      -0.273586        -7.4446
  42   2.0000      -0.262397        -7.1402
  43   2.0000      -0.246024        -6.6946
  44   2.0000      -0.242297        -6.5932
  45   2.0000      -0.219282        -5.9670
  46   2.0000      -0.218642        -5.9495
  47   2.0000      -0.210004        -5.7145
  48   0.0000       0.010691         0.2909
  49   0.0000       0.015141         0.4120
  50   0.0000       0.037300         1.0150
  51   0.0000       0.045359         1.2343
  52   0.0000       0.058687         1.5970

MULLIKEN ATOMIC CHARGES
-----------------------
   0 C :    0.094456
   1 C :   -0.009399
   2 H :    0.059277
   3 C :    0.058559
   4 H :    0.035708
   5 C :    0.075016
   6 H :    0.070264
   7 C :    0.031424
   8 H :    0.045139
   9 C :    0.168895
  10 H :    0.044424
  11 O :   -0.320637
  12 O :   -0.385794
  13 O :   -0.405015
  14 O :   -0.409697
  15 O :   -0.414581
  16 O :   -0.431304
  17 H :    0.066191
  18 H :    0.104228
  19 H :    0.312020
  20 H :    0.307838
  21 H :    0.303092
  22 H :    0.306158
  23 H :    0.293741
Sum of atomic charges:   -0.0000000

LOEWDIN ATOMIC CHARGES
----------------------
   0 C :   -0.125297
   1 C :   -0.071180
   2 H :    0.108635
   3 C :   -0.076069
   4 H :    0.094094
   5 C :   -0.076890
   6 H :    0.122004
   7 C :   -0.088841
   8 H :    0.100063
   9 C :   -0.005312
  10 H :    0.084354
  11 O :   -0.159569
  12 O :   -0.298817
  13 O :   -0.313232
  14 O :   -0.305003
  15 O :   -0.317818
  16 O :   -0.334025
  17 H :    0.100195
  18 H :    0.126490
  19 H :    0.293801
  20 H :    0.288827
  21 H :    0.288321
  22 H :    0.285360
  23 H :    0.279909

  Mayer bond orders larger than 0.100000
B(  0-C ,  1-C ) :   1.0533 B(  0-C , 16-O ) :   1.0803 B(  0-C , 17-H ) :   0.9063
B(  0-C , 18-H ) :   0.9117 B(  1-C ,  2-H ) :   0.8684 B(  1-C ,  3-C ) :   0.9950
B(  1-C , 11-O ) :   0.9758 B(  3-C ,  4-H ) :   0.8623 B(  3-C ,  5-C ) :   0.9998
B(  3-C , 15-O ) :   1.0780 B(  5-C ,  6-H ) :   0.8671 B(  5-C ,  7-C ) :   1.0096
B(  5-C , 14-O ) :   1.0498 B(  7-C ,  8-H ) :   0.8600 B(  7-C ,  9-C ) :   0.9949
B(  7-C , 13-O ) :   1.0959 B(  9-C , 10-H ) :   0.8861 B(  9-C , 11-O ) :   1.0145
B(  9-C , 12-O ) :   1.1661 B( 12-O , 19-H ) :   0.8369 B( 13-O , 20-H ) :   0.8384
B( 14-O , 21-H ) :   0.8460 B( 15-O , 22-H ) :   0.8266 B( 16-O , 23-H ) :   0.8508

Dispersion correction           -0.023594074
FINAL SINGLE POINT ENERGY      -685.701196428782

DIPOLE MOMENT
-------------

Method             : SCF
Type of density    : Electron Density
Multiplicity       :   1
Irrep              :   0
Energy             :  -685.8309307557999546 Eh
Relativity type    :
Basis              : AO
                                X                 Y                 Z
Electronic contribution:      2.192527822      -0.569451162       0.403604574
Nuclear contribution   :     -1.454223167      -0.104773732      -1.002769445
                        -----------------------------------------
Total Dipole Moment    :      0.738304655      -0.674224894      -0.599164871
                        -----------------------------------------
Magnitude (a.u.)       :      1.165620656
Magnitude (Debye)      :      2.962772252

Rotational constants in cm-1:             0.039432             0.025831             0.016320
Rotational constants in MHz :          1182.132952           774.382883           489.265769

                             ****ORCA TERMINATED NORMALLY****
TOTAL RUN TIME: 0 days 0 hours 0 minutes 11 seconds 936 msec
