                         Program Version 6.0.0  -   RELEASE  -
|  1> ! r2scan-3c def2/J RI DEFGRID2 scfconv6 printgap
|  2> %output
|  3>     printlevel normal
|  4> end
|  5> * xyz 0 1
|  6> C 1.5767553451 0.5053776256 -1.7221893688
|  7> C 2.9481759724 0.574152529 -1.8764953663
|  8> C 3.7729121555 0.4477620301 -0.7692117734
|  9> C 3.224668826 0.25402434 0.4962467902
| 10> C 1.8412563605 0.1940878846 0.6414672984
| 11> C 1.0058007089 0.3186653041 -0.467711781
| 12> C -0.4625385931 0.2500722253 -0.3070030199
| 13> C -1.1321766541 1.2223902983 0.4251015159
| 14> C -2.5059182488 1.1615236882 0.5867959023
| 15> C -3.2375756415 0.1205483623 0.0180464898
| 16> C -2.5736124773 -0.8591514817 -0.7169791304
| 17> C -1.1914697967 -0.7922523911 -0.8799256075
| 18> Cl -0.3878706083 -2.0321702747 -1.7606627118
| 19> Cl -3.4655001127 -2.1542024017 -1.4143295178
| 20> Cl -4.9436115209 0.0351595731 0.2215339898
| 21> Cl -3.3191097948 2.3729978107 1.4985578959
| 22> Cl 1.168039098 -0.0775562631 2.2084485949
| 23> Cl 4.2488754517 0.0841934061 1.8758367756
| 24> Cl 5.4862490915 0.5250347121 -0.9507955524
| 25> H 0.9330631404 0.6058262305 -2.5803234078
| 26> H 3.3868536272 0.7229310452 -2.848778211
| 27> H -0.5787858336 2.0346024931 0.8666990187
| 28> *
| 29>
| 30>                          ****END OF INPUT****

CARTESIAN COORDINATES (ANGSTROEM)
---------------------------------
  C      1.576755    0.505378   -1.722189
  C      2.948176    0.574153   -1.876495
  C      3.772912    0.447762   -0.769212
  C      3.224669    0.254024    0.496247
  C      1.841256    0.194088    0.641467
  C      1.005801    0.318665   -0.467712
  C     -0.462539    0.250072   -0.307003
  C     -1.132177    1.222390    0.425102
  C     -2.505918    1.161524    0.586796
  C     -3.237576    0.120548    0.018046
  C     -2.573612   -0.859151   -0.716979
  C     -1.191470   -0.792252   -0.879926
  Cl    -0.387871   -2.032170   -1.760663
  Cl    -3.465500   -2.154202   -1.414330
  Cl    -4.943612    0.035160    0.221534
  Cl    -3.319110    2.372998    1.498558
  Cl     1.168039   -0.077556    2.208449
  Cl     4.248875    0.084193    1.875837
  Cl     5.486249    0.525035   -0.950796
  H      0.933063    0.605826   -2.580323
  H      3.386854    0.722931   -2.848778
  H     -0.578786    2.034602    0.866699

 Total Charge           Charge          ....    0
 Multiplicity           Mult            ....    1
 Number of Electrons    NEL             ....  194
 Basis Dimension        Dim             ....  432

ORBITAL ENERGIES
----------------

  NO   OCC          E(Eh)            E(eV)
   0   2.0000    -101.244805     -2755.0112
   1   2.0000    -101.244776     -2755.0104
   2   2.0000    -101.244688     -2755.0080
   3   2.0000    -101.243289     -2754.9700
   4   2.0000    -101.242789     -2754.9563
   5   2.0000    -101.241446     -2754.9198
   6   2.0000    -101.241340     -2754.9169
   7   2.0000     -10.140102      -275.9262
   8   2.0000     -10.139227      -275.9024
   9   2.0000     -10.136084      -275.8169
  10   2.0000     -10.135710      -275.8067
  11   2.0000     -10.134972      -275.7866
  12   2.0000     -10.134340      -275.7694
  13   2.0000     -10.133093      -275.7355
  14   2.0000     -10.095291      -274.7068
  15   2.0000     -10.091181      -274.5950
  16   2.0000     -10.080656      -274.3086
  17   2.0000     -10.075818      -274.1770
  18   2.0000     -10.075150      -274.1588
  19   2.0000      -9.400579      -255.8028
  20   2.0000      -9.400492      -255.8004
  21   2.0000      -9.400413      -255.7982
  22   2.0000      -9.399074      -255.7618
  23   2.0000      -9.398591      -255.7487
  24   2.0000      -9.397218      -255.7113
  25   2.0000      -9.396929      -255.7034
  26   2.0000      -7.147200      -194.4852
  27   2.0000      -7.147138      -194.4835
  28   2.0000      -7.147135      -194.4834
  29   2.0000      -7.145624      -194.4423
  30   2.0000      -7.145124      -194.4287
  31   2.0000      -7.143723      -194.3906
  32   2.0000      -7.143634      -194.3882
  33   2.0000      -7.136915      -194.2053
  34   2.0000      -7.136819      -194.2027
  35   2.0000      -7.136738      -194.2005
  36   2.0000      -7.135917      -194.1782
  37   2.0000      -7.135729      -194.1731
  38   2.0000      -7.135648      -194.1708
  39   2.0000      -7.135430      -194.1649
  40   2.0000      -7.134848      -194.1491
  41   2.0000      -7.134428      -194.1377
  42   2.0000      -7.134067      -194.1278
  43   2.0000      -7.133524      -194.1131
  44   2.0000      -7.133253      -194.1057
  45   2.0000      -7.132686      -194.0902
  46   2.0000      -7.132199      -194.0770
  47   2.0000      -0.930816       -25.3288
  48   2.0000      -0.918470       -24.9928
  49   2.0000      -0.883974       -24.0541
  50   2.0000      -0.871198       -23.7065
  51   2.0000      -0.860084       -23.4041
  52   2.0000      -0.840442       -22.8696
  53   2.0000      -0.829492       -22.5716
  54   2.0000      -0.819084       -22.2884
  55   2.0000      -0.811065       -22.0702
  56   2.0000      -0.755242       -20.5512
  57   2.0000      -0.727332       -19.7917
  58   2.0000      -0.719399       -19.5758
  59   2.0000      -0.702870       -19.1261
  60   2.0000      -0.626940       -17.0599
  61   2.0000      -0.611659       -16.6441
  62   2.0000      -0.602567       -16.3967
  63   2.0000      -0.580880       -15.8065
  64   2.0000      -0.522040       -14.2054
  65   2.0000      -0.516320       -14.0498
  66   2.0000      -0.498911       -13.5761
  67   2.0000      -0.495383       -13.4800
  68   2.0000      -0.469893       -12.7864
  69   2.0000      -0.457194       -12.4409
  70   2.0000      -0.443384       -12.0651
  71   2.0000      -0.440471       -11.9858
  72   2.0000      -0.438291       -11.9265
  73   2.0000      -0.434324       -11.8186
  74   2.0000      -0.425335       -11.5740
  75   2.0000      -0.411519       -11.1980
  76   2.0000      -0.395707       -10.7677
  77   2.0000      -0.383370       -10.4320
  78   2.0000      -0.380987       -10.3672
  79   2.0000      -0.375312       -10.2128
  80   2.0000      -0.361663        -9.8413
  81   2.0000      -0.353619        -9.6225
  82   2.0000      -0.338722        -9.2171
  83   2.0000      -0.326731        -8.8908
  84   2.0000      -0.325030        -8.8445
  85   2.0000      -0.322652        -8.7798
  86   2.0000      -0.321410        -8.7460
  87   2.0000      -0.317132        -8.6296
  88   2.0000      -0.312227        -8.4961
  89   2.0000      -0.304880        -8.2962
  90   2.0000      -0.303000        -8.2450
  91   2.0000      -0.285552        -7.7703
  92   2.0000      -0.284323        -7.7368
  93   2.0000      -0.258528        -7.0349
  94   2.0000      -0.250513        -6.8168
  95   2.0000      -0.245667        -6.6849
  96   2.0000      -0.238942        -6.5019
  97   0.0000      -0.089480        -2.4349
  98   0.0000      -0.076626        -2.0851
  99   0.0000      -0.069992        -1.9046
 100   0.0000      -0.062072        -1.6891
 101   0.0000      -0.059991        -1.6324

MULLIKEN ATOMIC CHARGES
-----------------------
   0 C :   -0.132130
   1 C :   -0.258143
   2 C :    0.174712
   3 C :   -0.011768
   4 C :    0.030119
   5 C :    0.113893
   6 C :    0.135256
   7 C :   -0.274775
   8 C :    0.110952
   9 C :    0.083026
  10 C :    0.014515
  11 C :    0.021525
  12 Cl:   -0.064147
  13 Cl:   -0.064293
  14 Cl:   -0.063048
  15 Cl:   -0.089687
  16 Cl:   -0.067880
  17 Cl:   -0.072692
  18 Cl:   -0.093399
  19 H :    0.164997
  20 H :    0.165498
  21 H :    0.177471
Sum of atomic charges:   -0.0000000

LOEWDIN ATOMIC CHARGES
----------------------
   0 C :   -0.125682
   1 C :   -0.159361
   2 C :   -0.174039
   3 C :   -0.191893
   4 C :   -0.153546
   5 C :   -0.090794
   6 C :   -0.083683
   7 C :   -0.139755
   8 C :   -0.178963
   9 C :   -0.191786
  10 C :   -0.188720
  11 C :   -0.162787
  12 Cl:    0.196165
  13 Cl:    0.186393
  14 Cl:    0.186518
  15 Cl:    0.171845
  16 Cl:    0.193448
  17 Cl:    0.177287
  18 Cl:    0.167269
  19 H :    0.184545
  20 H :    0.184267
  21 H :    0.193273

  Mayer bond orders larger than 0.100000
B(  0-C ,  1-C ) :   1.3718 B(  0-C ,  5-C ) :   1.3901 B(  0-C , 19-H ) :   0.9320
B(  1-C ,  2-C ) :   1.3437 B(  1-C , 20-H ) :   0.9433 B(  2-C ,  3-C ) :   1.2248
B(  2-C , 18-Cl) :   1.0664 B(  3-C ,  4-C ) :   1.1092 B(  3-C , 17-Cl) :   1.2410
B(  4-C ,  5-C ) :   1.2992 B(  4-C , 16-Cl) :   1.2588 B(  5-C ,  6-C ) :   0.7651
B(  5-C , 16-Cl) :  -0.1007 B(  6-C ,  7-C ) :   1.3607 B(  6-C , 11-C ) :   1.2752
B(  6-C , 12-Cl) :  -0.1007 B(  7-C ,  8-C ) :   1.3282 B(  7-C , 21-H ) :   0.9176
B(  8-C ,  9-C ) :   1.2180 B(  8-C , 15-Cl) :   1.0802 B(  9-C , 10-C ) :   1.0970
B(  9-C , 14-Cl) :   1.2463 B( 10-C , 11-C ) :   1.0967 B( 10-C , 13-Cl) :   1.2696
B( 11-C , 12-Cl) :   1.2719

Dispersion correction           -0.015741390
FINAL SINGLE POINT ENERGY     -3680.216982381290

DIPOLE MOMENT
-------------

Method             : SCF
Type of density    : Electron Density
Multiplicity       :   1
Irrep              :   0
Energy             : -3680.2145259335052287 Eh
Relativity type    :
Basis              : AO
                                X                 Y                 Z
Electronic contribution:     -4.993629101      -4.471382891       5.936514977
Nuclear contribution   :      5.137848566       4.828550299      -6.533361409
                        -----------------------------------------
Total Dipole Moment    :      0.144219465       0.357167408      -0.596846432
                        -----------------------------------------
Magnitude (a.u.)       :      0.710347433
Magnitude (Debye)      :      1.805559683

Rotational constants in cm-1:             0.012911             0.003689             0.003201
Rotational constants in MHz :           387.074952           110.593949            95.972827

                             ****ORCA TERMINATED NORMALLY****
TOTAL RUN TIME: 0 days 0 hours 1 minutes 19 seconds 910 msec
