                         Program Version 6.0.0  -   RELEASE  -
|  1> ! r2scan-3c def2/J RI DEFGRID2 scfconv6 printgap
|  2> %output
|  3>     printlevel normal
|  4> end
|  5> %cpcm
|  6>     smd true
|  7>     smdsolvent "water"
|  8> end
|  9> * xyz 0 1
| 10> C 1.5767553451 0.5053776256 -1.7221893688
| 11> C 2.9481759724 0.574152529 -1.8764953663
| 12> C 3.7729121555 0.4477620301 -0.7692117734
| 13> C 3.224668826 0.25402434 0.4962467902
| 14> C 1.8412563605 0.1940878846 0.6414672984
| 15> C 1.0058007089 0.3186653041 -0.467711781
| 16> C -0.4625385931 0.2500722253 -0.3070030199
| 17> C -1.1321766541 1.2223902983 0.4251015159
| 18> C -2.5059182488 1.1615236882 0.5867959023
| 19> C -3.2375756415 0.1205483623 0.0180464898
| 20> C -2.5736124773 -0.8591514817 -0.7169791304
| 21> C -1.1914697967 -0.7922523911 -0.8799256075
| 22> Cl -0.3878706083 -2.0321702747 -1.7606627118
| 23> Cl -3.4655001127 -2.1542024017 -1.4143295178
| 24> Cl -4.9436115209 0.0351595731 0.2215339898
| 25> Cl -3.3191097948 2.3729978107 1.4985578959
| 26> Cl 1.168039098 -0.0775562631 2.2084485949
| 27> Cl 4.2488754517 0.0841934061 1.8758367756
| 28> Cl 5.4862490915 0.5250347121 -0.9507955524
| 29> H 0.9330631404 0.6058262305 -2.5803234078
| 30> H 3.3868536272 0.7229310452 -2.848778211
| 31> H -0.5787858336 2.0346024931 0.8666990187
| 32> *
| 33>
| 34>                          ****END OF INPUT****

CARTESIAN COORDINATES (ANGSTROEM)
---------------------------------
  C      1.576755    0.505378   -1.722189
  C      2.948176    0.574153   -1.876495
  C      3.772912    0.447762   -0.769212
  C      3.224669    0.254024    0.496247
  C      1.841256    0.194088    0.641467
  C      1.005801    0.318665   -0.467712
  C     -0.462539    0.250072   -0.307003
  C     -1.132177    1.222390    0.425102
  C     -2.505918    1.161524    0.586796
  C     -3.237576    0.120548    0.018046
  C     -2.573612   -0.859151   -0.716979
  C     -1.191470   -0.792252   -0.879926
  Cl    -0.387871   -2.032170   -1.760663
  Cl    -3.465500   -2.154202   -1.414330
  Cl    -4.943612    0.035160    0.221534
  Cl    -3.319110    2.372998    1.498558
  Cl     1.168039   -0.077556    2.208449
  Cl     4.248875    0.084193    1.875837
  Cl     5.486249    0.525035   -0.950796
  H      0.933063    0.605826   -2.580323
  H      3.386854    0.722931   -2.848778
  H     -0.578786    2.034602    0.866699

 Total Charge           Charge          ....    0
 Multiplicity           Mult            ....    1
 Number of Electrons    NEL             ....  194
 Basis Dimension        Dim             ....  432

ORBITAL ENERGIES
----------------

  NO   OCC          E(Eh)            E(eV)
   0   2.0000    -101.243322     -2754.9708
   1   2.0000    -101.243032     -2754.9630
   2   2.0000    -101.240207     -2754.8861
   3   2.0000    -101.239415     -2754.8645
   4   2.0000    -101.239317     -2754.8619
   5   2.0000    -101.238624     -2754.8430
   6   2.0000    -101.237157     -2754.8031
   7   2.0000     -10.134610      -275.7768
   8   2.0000     -10.133949      -275.7588
   9   2.0000     -10.129587      -275.6401
  10   2.0000     -10.128088      -275.5993
  11   2.0000     -10.127745      -275.5899
  12   2.0000     -10.127545      -275.5845
  13   2.0000     -10.124578      -275.5038
  14   2.0000     -10.086978      -274.4806
  15   2.0000     -10.081279      -274.3256
  16   2.0000     -10.070467      -274.0314
  17   2.0000     -10.062002      -273.8010
  18   2.0000     -10.061494      -273.7872
  19   2.0000      -9.399072      -255.7618
  20   2.0000      -9.398822      -255.7550
  21   2.0000      -9.396169      -255.6828
  22   2.0000      -9.395322      -255.6597
  23   2.0000      -9.395065      -255.6527
  24   2.0000      -9.394528      -255.6381
  25   2.0000      -9.393072      -255.5985
  26   2.0000      -7.145688      -194.4441
  27   2.0000      -7.145431      -194.4371
  28   2.0000      -7.142661      -194.3617
  29   2.0000      -7.141764      -194.3373
  30   2.0000      -7.141631      -194.3336
  31   2.0000      -7.140986      -194.3161
  32   2.0000      -7.139458      -194.2745
  33   2.0000      -7.135407      -194.1643
  34   2.0000      -7.135154      -194.1574
  35   2.0000      -7.134384      -194.1364
  36   2.0000      -7.134135      -194.1297
  37   2.0000      -7.132514      -194.0856
  38   2.0000      -7.131616      -194.0611
  39   2.0000      -7.131546      -194.0592
  40   2.0000      -7.131406      -194.0554
  41   2.0000      -7.130888      -194.0413
  42   2.0000      -7.130832      -194.0398
  43   2.0000      -7.130426      -194.0288
  44   2.0000      -7.129947      -194.0157
  45   2.0000      -7.129419      -194.0014
  46   2.0000      -7.128590      -193.9788
  47   2.0000      -0.925176       -25.1753
  48   2.0000      -0.912099       -24.8195
  49   2.0000      -0.879488       -23.9321
  50   2.0000      -0.865805       -23.5597
  51   2.0000      -0.855516       -23.2798
  52   2.0000      -0.835593       -22.7376
  53   2.0000      -0.827015       -22.5042
  54   2.0000      -0.813093       -22.1254
  55   2.0000      -0.804321       -21.8867
  56   2.0000      -0.748295       -20.3621
  57   2.0000      -0.718136       -19.5415
  58   2.0000      -0.712248       -19.3813
  59   2.0000      -0.695976       -18.9385
  60   2.0000      -0.619477       -16.8568
  61   2.0000      -0.602800       -16.4030
  62   2.0000      -0.594260       -16.1706
  63   2.0000      -0.573389       -15.6027
  64   2.0000      -0.514076       -13.9887
  65   2.0000      -0.509106       -13.8535
  66   2.0000      -0.491480       -13.3738
  67   2.0000      -0.486782       -13.2460
  68   2.0000      -0.463670       -12.6171
  69   2.0000      -0.450609       -12.2617
  70   2.0000      -0.438072       -11.9205
  71   2.0000      -0.434159       -11.8141
  72   2.0000      -0.428992       -11.6735
  73   2.0000      -0.427417       -11.6306
  74   2.0000      -0.418167       -11.3789
  75   2.0000      -0.404926       -11.0186
  76   2.0000      -0.387748       -10.5512
  77   2.0000      -0.375116       -10.2074
  78   2.0000      -0.371368       -10.1054
  79   2.0000      -0.367937       -10.0121
  80   2.0000      -0.356239        -9.6937
  81   2.0000      -0.349088        -9.4992
  82   2.0000      -0.333732        -9.0813
  83   2.0000      -0.325122        -8.8470
  84   2.0000      -0.323163        -8.7937
  85   2.0000      -0.320179        -8.7125
  86   2.0000      -0.316980        -8.6255
  87   2.0000      -0.313278        -8.5247
  88   2.0000      -0.307468        -8.3666
  89   2.0000      -0.300804        -8.1853
  90   2.0000      -0.299121        -8.1395
  91   2.0000      -0.283055        -7.7023
  92   2.0000      -0.282551        -7.6886
  93   2.0000      -0.252542        -6.8720
  94   2.0000      -0.243539        -6.6270
  95   2.0000      -0.239581        -6.5193
  96   2.0000      -0.232579        -6.3288
  97   0.0000      -0.081453        -2.2164
  98   0.0000      -0.068929        -1.8757
  99   0.0000      -0.061246        -1.6666
 100   0.0000      -0.056999        -1.5510
 101   0.0000      -0.051876        -1.4116

MULLIKEN ATOMIC CHARGES
-----------------------
   0 C :   -0.155018
   1 C :   -0.268600
   2 C :    0.173835
   3 C :   -0.007525
   4 C :    0.050537
   5 C :    0.108990
   6 C :    0.125444
   7 C :   -0.266478
   8 C :    0.103404
   9 C :    0.096938
  10 C :    0.018049
  11 C :    0.044969
  12 Cl:   -0.079847
  13 Cl:   -0.081992
  14 Cl:   -0.081553
  15 Cl:   -0.104060
  16 Cl:   -0.088824
  17 Cl:   -0.095576
  18 Cl:   -0.111744
  19 H :    0.204109
  20 H :    0.202243
  21 H :    0.212699
Sum of atomic charges:   -0.0000000

LOEWDIN ATOMIC CHARGES
----------------------
   0 C :   -0.116660
   1 C :   -0.150938
   2 C :   -0.176789
   3 C :   -0.194418
   4 C :   -0.152733
   5 C :   -0.086536
   6 C :   -0.076380
   7 C :   -0.129297
   8 C :   -0.178755
   9 C :   -0.190792
  10 C :   -0.187897
  11 C :   -0.158023
  12 Cl:    0.189092
  13 Cl:    0.174675
  14 Cl:    0.174244
  15 Cl:    0.162093
  16 Cl:    0.181845
  17 Cl:    0.160910
  18 Cl:    0.154121
  19 H :    0.198325
  20 H :    0.197741
  21 H :    0.206173

  Mayer bond orders larger than 0.100000
B(  0-C ,  1-C ) :   1.3829 B(  0-C ,  5-C ) :   1.3826 B(  0-C , 19-H ) :   0.9333
B(  1-C ,  2-C ) :   1.3198 B(  1-C , 20-H ) :   0.9408 B(  2-C ,  3-C ) :   1.2139
B(  2-C , 18-Cl) :   1.0546 B(  3-C ,  4-C ) :   1.1164 B(  3-C , 17-Cl) :   1.2135
B(  4-C ,  5-C ) :   1.2825 B(  4-C , 16-Cl) :   1.2263 B(  5-C ,  6-C ) :   0.7696
B(  6-C ,  7-C ) :   1.3881 B(  6-C , 11-C ) :   1.2648 B(  7-C ,  8-C ) :   1.3186
B(  7-C , 21-H ) :   0.9099 B(  8-C ,  9-C ) :   1.2121 B(  8-C , 15-Cl) :   1.0808
B(  9-C , 10-C ) :   1.1027 B(  9-C , 14-Cl) :   1.2238 B( 10-C , 11-C ) :   1.1040
B( 10-C , 13-Cl) :   1.2484 B( 11-C , 12-Cl) :   1.2421

Dispersion correction           -0.015741390
FINAL SINGLE POINT ENERGY     -3680.217630915399

DIPOLE MOMENT
-------------

Method             : SCF
Type of density    : Electron Density
Multiplicity       :   1
Irrep              :   0
Energy             : -3680.2151744676143608 Eh
Relativity type    :
Basis              : AO
                                X                 Y                 Z
Electronic contribution:     -4.926277018      -4.180499832       5.551274316
Nuclear contribution   :      5.137848566       4.828550299      -6.533361409
                        -----------------------------------------
Total Dipole Moment    :      0.211571548       0.648050467      -0.982087093
                        -----------------------------------------
Magnitude (a.u.)       :      1.195502818
Magnitude (Debye)      :      3.038726671

Rotational constants in cm-1:             0.012911             0.003689             0.003201
Rotational constants in MHz :           387.074952           110.593949            95.972827

                             ****ORCA TERMINATED NORMALLY****
TOTAL RUN TIME: 0 days 0 hours 1 minutes 43 seconds 44 msec
