                         Program Version 6.0.0  -   RELEASE  -
|  1> ! r2scan-3c def2/J RI DEFGRID2 scfconv6 printgap
|  2> %output
|  3>     printlevel normal
|  4> end
|  5> * xyz 0 1
|  6> C 1.8428406622 0.9773175381 -0.2269544009
|  7> C 0.9788044424 -0.1058809816 0.4069084442
|  8> C -0.3733427037 -0.2858398178 -0.2954188057
|  9> H -0.1974407483 -0.4761644522 -1.3679835932
| 10> C -1.2730632982 0.9372859293 -0.1532342243
| 11> O -1.08785197 -1.3844590989 0.2549268037
| 12> H 1.9726201669 0.7856002678 -1.2897737579
| 13> H 2.8228666031 0.9916657054 0.2427650457
| 14> H 1.3925551989 1.9579766897 -0.1043918451
| 15> H 0.7959006227 0.127685785 1.4577970841
| 16> H 1.5175941177 -1.0565217027 0.3661752326
| 17> H -2.2514077 0.7101602743 -0.5681843976
| 18> H -1.3944305992 1.1847005595 0.898019277
| 19> H -0.8512074353 1.7851588373 -0.6817701417
| 20> H -0.5434678398 -2.1810882888 0.2026500324
| 21> *
| 22>
| 23>                          ****END OF INPUT****

CARTESIAN COORDINATES (ANGSTROEM)
---------------------------------
  C      1.842841    0.977318   -0.226954
  C      0.978804   -0.105881    0.406908
  C     -0.373343   -0.285840   -0.295419
  H     -0.197441   -0.476164   -1.367984
  C     -1.273063    0.937286   -0.153234
  O     -1.087852   -1.384459    0.254927
  H      1.972620    0.785600   -1.289774
  H      2.822867    0.991666    0.242765
  H      1.392555    1.957977   -0.104392
  H      0.795901    0.127686    1.457797
  H      1.517594   -1.056522    0.366175
  H     -2.251408    0.710160   -0.568184
  H     -1.394431    1.184701    0.898019
  H     -0.851207    1.785159   -0.681770
  H     -0.543468   -2.181088    0.202650

 Total Charge           Charge          ....    0
 Multiplicity           Mult            ....    1
 Number of Electrons    NEL             ....   42
 Basis Dimension        Dim             ....  150

ORBITAL ENERGIES
----------------

  NO   OCC          E(Eh)            E(eV)
   0   2.0000     -18.942609      -515.4546
   1   2.0000     -10.079684      -274.2821
   2   2.0000     -10.027462      -272.8611
   3   2.0000     -10.022022      -272.7131
   4   2.0000     -10.014999      -272.5220
   5   2.0000      -0.980214       -26.6730
   6   2.0000      -0.755604       -20.5610
   7   2.0000      -0.690830       -18.7984
   8   2.0000      -0.606600       -16.5064
   9   2.0000      -0.543595       -14.7920
  10   2.0000      -0.481913       -13.1135
  11   2.0000      -0.435512       -11.8509
  12   2.0000      -0.401102       -10.9145
  13   2.0000      -0.378635       -10.3032
  14   2.0000      -0.361610        -9.8399
  15   2.0000      -0.350830        -9.5466
  16   2.0000      -0.339855        -9.2479
  17   2.0000      -0.314548        -8.5593
  18   2.0000      -0.311006        -8.4629
  19   2.0000      -0.283369        -7.7109
  20   2.0000      -0.231809        -6.3078
  21   0.0000       0.066080         1.7981
  22   0.0000       0.093488         2.5439
  23   0.0000       0.127622         3.4728
  24   0.0000       0.132241         3.5985
  25   0.0000       0.136828         3.7233

MULLIKEN ATOMIC CHARGES
-----------------------
   0 C :   -0.502611
   1 C :   -0.203813
   2 C :    0.050188
   3 H :    0.122952
   4 C :   -0.503617
   5 O :   -0.418278
   6 H :    0.145922
   7 H :    0.147529
   8 H :    0.151959
   9 H :    0.146755
  10 H :    0.122384
  11 H :    0.157252
  12 H :    0.152943
  13 H :    0.147732
  14 H :    0.282704
Sum of atomic charges:    0.0000000

LOEWDIN ATOMIC CHARGES
----------------------
   0 C :   -0.421744
   1 C :   -0.296772
   2 C :    0.045013
   3 H :    0.157871
   4 C :   -0.384028
   5 O :   -0.617528
   6 H :    0.151399
   7 H :    0.152732
   8 H :    0.151560
   9 H :    0.160842
  10 H :    0.152099
  11 H :    0.165287
  12 H :    0.160295
  13 H :    0.156352
  14 H :    0.266621

  Mayer bond orders larger than 0.100000
B(  0-C ,  1-C ) :   0.8886 B(  0-C ,  6-H ) :   0.9808 B(  0-C ,  7-H ) :   0.9653
B(  0-C ,  8-H ) :   0.9814 B(  1-C ,  2-C ) :   0.9095 B(  1-C ,  9-H ) :   0.9733
B(  1-C , 10-H ) :   0.9617 B(  2-C ,  3-H ) :   0.9605 B(  2-C ,  4-C ) :   0.9312
B(  2-C ,  5-O ) :   0.8923 B(  4-C , 11-H ) :   0.9635 B(  4-C , 12-H ) :   0.9801
B(  4-C , 13-H ) :   0.9721 B(  5-O , 14-H ) :   0.9010

Dispersion correction           -0.003191926
FINAL SINGLE POINT ENERGY      -233.603912345805

DIPOLE MOMENT
-------------

Method             : SCF
Type of density    : Electron Density
Multiplicity       :   1
Irrep              :   0
Energy             :  -233.6089432439885343 Eh
Relativity type    :
Basis              : AO
                                X                 Y                 Z
Electronic contribution:     -2.461774178      -3.568035895       0.586224999
Nuclear contribution   :      3.045607760       3.571814444      -0.788676249
                        -----------------------------------------
Total Dipole Moment    :      0.583833582       0.003778550      -0.202451251
                        -----------------------------------------
Magnitude (a.u.)       :      0.617950190
Magnitude (Debye)      :      1.570704558

Rotational constants in cm-1:             0.257873             0.116038             0.088562
Rotational constants in MHz :          7730.845288          3478.745639          2655.029954

                             ****ORCA TERMINATED NORMALLY****
TOTAL RUN TIME: 0 days 0 hours 0 minutes 15 seconds 473 msec
