                         Program Version 6.0.0  -   RELEASE  -
|  1> ! r2scan-3c def2/J RI DEFGRID2 scfconv6 printgap
|  2> %output
|  3>     printlevel normal
|  4> end
|  5> %cpcm
|  6>     smd true
|  7>     smdsolvent "water"
|  8> end
|  9> * xyz 0 1
| 10> C 1.8428406622 0.9773175381 -0.2269544009
| 11> C 0.9788044424 -0.1058809816 0.4069084442
| 12> C -0.3733427037 -0.2858398178 -0.2954188057
| 13> H -0.1974407483 -0.4761644522 -1.3679835932
| 14> C -1.2730632982 0.9372859293 -0.1532342243
| 15> O -1.08785197 -1.3844590989 0.2549268037
| 16> H 1.9726201669 0.7856002678 -1.2897737579
| 17> H 2.8228666031 0.9916657054 0.2427650457
| 18> H 1.3925551989 1.9579766897 -0.1043918451
| 19> H 0.7959006227 0.127685785 1.4577970841
| 20> H 1.5175941177 -1.0565217027 0.3661752326
| 21> H -2.2514077 0.7101602743 -0.5681843976
| 22> H -1.3944305992 1.1847005595 0.898019277
| 23> H -0.8512074353 1.7851588373 -0.6817701417
| 24> H -0.5434678398 -2.1810882888 0.2026500324
| 25> *
| 26>
| 27>                          ****END OF INPUT****

CARTESIAN COORDINATES (ANGSTROEM)
---------------------------------
  C      1.842841    0.977318   -0.226954
  C      0.978804   -0.105881    0.406908
  C     -0.373343   -0.285840   -0.295419
  H     -0.197441   -0.476164   -1.367984
  C     -1.273063    0.937286   -0.153234
  O     -1.087852   -1.384459    0.254927
  H      1.972620    0.785600   -1.289774
  H      2.822867    0.991666    0.242765
  H      1.392555    1.957977   -0.104392
  H      0.795901    0.127686    1.457797
  H      1.517594   -1.056522    0.366175
  H     -2.251408    0.710160   -0.568184
  H     -1.394431    1.184701    0.898019
  H     -0.851207    1.785159   -0.681770
  H     -0.543468   -2.181088    0.202650

 Total Charge           Charge          ....    0
 Multiplicity           Mult            ....    1
 Number of Electrons    NEL             ....   42
 Basis Dimension        Dim             ....  150

ORBITAL ENERGIES
----------------

  NO   OCC          E(Eh)            E(eV)
   0   2.0000     -18.947719      -515.5937
   1   2.0000     -10.075008      -274.1549
   2   2.0000     -10.017573      -272.5920
   3   2.0000     -10.010534      -272.4005
   4   2.0000     -10.009983      -272.3855
   5   2.0000      -0.984038       -26.7770
   6   2.0000      -0.748026       -20.3548
   7   2.0000      -0.684574       -18.6282
   8   2.0000      -0.598929       -16.2977
   9   2.0000      -0.538541       -14.6544
  10   2.0000      -0.478906       -13.0317
  11   2.0000      -0.427558       -11.6344
  12   2.0000      -0.394678       -10.7397
  13   2.0000      -0.376531       -10.2459
  14   2.0000      -0.353820        -9.6279
  15   2.0000      -0.345504        -9.4017
  16   2.0000      -0.334800        -9.1104
  17   2.0000      -0.308602        -8.3975
  18   2.0000      -0.304491        -8.2856
  19   2.0000      -0.281050        -7.6478
  20   2.0000      -0.236623        -6.4388
  21   0.0000       0.081925         2.2293
  22   0.0000       0.103402         2.8137
  23   0.0000       0.136329         3.7097
  24   0.0000       0.140233         3.8159
  25   0.0000       0.146739         3.9930

MULLIKEN ATOMIC CHARGES
-----------------------
   0 C :   -0.537209
   1 C :   -0.223949
   2 C :    0.068210
   3 H :    0.136318
   4 C :   -0.542961
   5 O :   -0.510571
   6 H :    0.158469
   7 H :    0.158323
   8 H :    0.162524
   9 H :    0.147837
  10 H :    0.148763
  11 H :    0.160519
  12 H :    0.164142
  13 H :    0.169893
  14 H :    0.339694
Sum of atomic charges:    0.0000000

LOEWDIN ATOMIC CHARGES
----------------------
   0 C :   -0.427122
   1 C :   -0.296846
   2 C :    0.046246
   3 H :    0.165546
   4 C :   -0.393888
   5 O :   -0.655797
   6 H :    0.155200
   7 H :    0.155507
   8 H :    0.154300
   9 H :    0.160468
  10 H :    0.160692
  11 H :    0.163600
  12 H :    0.161637
  13 H :    0.165160
  14 H :    0.285296

  Mayer bond orders larger than 0.100000
B(  0-C ,  1-C ) :   0.8869 B(  0-C ,  6-H ) :   0.9784 B(  0-C ,  7-H ) :   0.9630
B(  0-C ,  8-H ) :   0.9772 B(  1-C ,  2-C ) :   0.9168 B(  1-C ,  9-H ) :   0.9700
B(  1-C , 10-H ) :   0.9614 B(  2-C ,  3-H ) :   0.9558 B(  2-C ,  4-C ) :   0.9247
B(  2-C ,  5-O ) :   0.8756 B(  4-C , 11-H ) :   0.9631 B(  4-C , 12-H ) :   0.9769
B(  4-C , 13-H ) :   0.9652 B(  5-O , 14-H ) :   0.8750

Dispersion correction           -0.003191926
FINAL SINGLE POINT ENERGY      -233.610647191947

DIPOLE MOMENT
-------------

Method             : SCF
Type of density    : Electron Density
Multiplicity       :   1
Irrep              :   0
Energy             :  -233.6156780901308991 Eh
Relativity type    :
Basis              : AO
                                X                 Y                 Z
Electronic contribution:     -2.198339364      -3.577153421       0.466157588
Nuclear contribution   :      3.045607760       3.571814444      -0.788676249
                        -----------------------------------------
Total Dipole Moment    :      0.847268396      -0.005338976      -0.322518661
                        -----------------------------------------
Magnitude (a.u.)       :      0.906592812
Magnitude (Debye)      :      2.304375796

Rotational constants in cm-1:             0.257873             0.116038             0.088562
Rotational constants in MHz :          7730.845288          3478.745639          2655.029954

                             ****ORCA TERMINATED NORMALLY****
TOTAL RUN TIME: 0 days 0 hours 0 minutes 17 seconds 347 msec
