                         Program Version 6.0.0  -   RELEASE  -
|  1> ! r2scan-3c def2/J RI DEFGRID2 scfconv6 printgap
|  2> %output
|  3>     printlevel normal
|  4> end
|  5> * xyz 0 1
|  6> C -1.9505054903 0.4890432977 0.103222774
|  7> C -0.8999795687 -0.5767846943 -0.1796668953
|  8> C 0.5508936282 -0.1620037944 -0.030360404
|  9> O 1.4563096637 -0.9859597776 -0.162793295
| 10> N 0.8046897624 1.1209355874 0.2428325038
| 11> H -1.8746514168 1.3138930179 -0.6008059533
| 12> H -2.9391856048 0.0503828924 -0.0059505813
| 13> H -1.862672738 0.8646329583 1.1196030874
| 14> H -1.0075430138 -0.9522755663 -1.2003247985
| 15> H -1.0425431592 -1.4353583492 0.4806348118
| 16> H 0.0668759081 1.7945406379 0.3479692003
| 17> H 1.7631307939 1.4137497296 0.3411585135
| 18> *
| 19>
| 20>                          ****END OF INPUT****

CARTESIAN COORDINATES (ANGSTROEM)
---------------------------------
  C     -1.950505    0.489043    0.103223
  C     -0.899980   -0.576785   -0.179667
  C      0.550894   -0.162004   -0.030360
  O      1.456310   -0.985960   -0.162793
  N      0.804690    1.120936    0.242833
  H     -1.874651    1.313893   -0.600806
  H     -2.939186    0.050383   -0.005951
  H     -1.862673    0.864633    1.119603
  H     -1.007543   -0.952276   -1.200325
  H     -1.042543   -1.435358    0.480635
  H      0.066876    1.794541    0.347969
  H      1.763131    1.413750    0.341159

 Total Charge           Charge          ....    0
 Multiplicity           Mult            ....    1
 Number of Electrons    NEL             ....   40
 Basis Dimension        Dim             ....  140

ORBITAL ENERGIES
----------------

  NO   OCC          E(Eh)            E(eV)
   0   2.0000     -18.902314      -514.3581
   1   2.0000     -14.184553      -385.9813
   2   2.0000     -10.126214      -275.5483
   3   2.0000     -10.043132      -273.2875
   4   2.0000     -10.038870      -273.1715
   5   2.0000      -0.989265       -26.9193
   6   2.0000      -0.876664       -23.8552
   7   2.0000      -0.751683       -20.4543
   8   2.0000      -0.629985       -17.1428
   9   2.0000      -0.558005       -15.1841
  10   2.0000      -0.518969       -14.1219
  11   2.0000      -0.442890       -12.0516
  12   2.0000      -0.426460       -11.6046
  13   2.0000      -0.392713       -10.6863
  14   2.0000      -0.370957       -10.0942
  15   2.0000      -0.350683        -9.5426
  16   2.0000      -0.342781        -9.3275
  17   2.0000      -0.322360        -8.7719
  18   2.0000      -0.241445        -6.5700
  19   2.0000      -0.210489        -5.7277
  20   0.0000       0.002892         0.0787
  21   0.0000       0.060380         1.6430
  22   0.0000       0.112201         3.0532
  23   0.0000       0.117044         3.1849
  24   0.0000       0.136773         3.7218

MULLIKEN ATOMIC CHARGES
-----------------------
   0 C :   -0.522363
   1 C :   -0.236444
   2 C :    0.254682
   3 O :   -0.417283
   4 N :   -0.377874
   5 H :    0.150301
   6 H :    0.156450
   7 H :    0.158200
   8 H :    0.165527
   9 H :    0.164796
  10 H :    0.257285
  11 H :    0.246722
Sum of atomic charges:    0.0000000

LOEWDIN ATOMIC CHARGES
----------------------
   0 C :   -0.420332
   1 C :   -0.252113
   2 C :    0.298368
   3 O :   -0.476407
   4 N :   -0.499059
   5 H :    0.150649
   6 H :    0.158755
   7 H :    0.152888
   8 H :    0.181183
   9 H :    0.181504
  10 H :    0.260536
  11 H :    0.264029

  Mayer bond orders larger than 0.100000
B(  0-C ,  1-C ) :   0.8585 B(  0-C ,  5-H ) :   0.9817 B(  0-C ,  6-H ) :   0.9551
B(  0-C ,  7-H ) :   0.9849 B(  1-C ,  2-C ) :   1.0096 B(  1-C ,  8-H ) :   0.9230
B(  1-C ,  9-H ) :   0.9323 B(  2-C ,  3-O ) :   1.9426 B(  2-C ,  4-N ) :   1.1205
B(  4-N , 10-H ) :   0.9045 B(  4-N , 11-H ) :   0.9186

Dispersion correction           -0.002477428
FINAL SINGLE POINT ENERGY      -248.471306750223

DIPOLE MOMENT
-------------

Method             : SCF
Type of density    : Electron Density
Multiplicity       :   1
Irrep              :   0
Energy             :  -248.4773307113738952 Eh
Relativity type    :
Basis              : AO
                                X                 Y                 Z
Electronic contribution:      5.458755989      -1.598225122      -0.235525820
Nuclear contribution   :     -6.444125244       2.852544913       0.451384864
                        -----------------------------------------
Total Dipole Moment    :     -0.985369255       1.254319790       0.215859044
                        -----------------------------------------
Magnitude (a.u.)       :      1.609616672
Magnitude (Debye)      :      4.091320438

Rotational constants in cm-1:             0.317998             0.130009             0.095620
Rotational constants in MHz :          9533.334942          3897.582305          2866.609245

                             ****ORCA TERMINATED NORMALLY****
TOTAL RUN TIME: 0 days 0 hours 0 minutes 11 seconds 640 msec
