                         Program Version 6.0.0  -   RELEASE  -
|  1> ! r2scan-3c def2/J RI DEFGRID2 scfconv6 printgap
|  2> %output
|  3>     printlevel normal
|  4> end
|  5> %cpcm
|  6>     smd true
|  7>     smdsolvent "water"
|  8> end
|  9> * xyz 0 1
| 10> C -1.9505054903 0.4890432977 0.103222774
| 11> C -0.8999795687 -0.5767846943 -0.1796668953
| 12> C 0.5508936282 -0.1620037944 -0.030360404
| 13> O 1.4563096637 -0.9859597776 -0.162793295
| 14> N 0.8046897624 1.1209355874 0.2428325038
| 15> H -1.8746514168 1.3138930179 -0.6008059533
| 16> H -2.9391856048 0.0503828924 -0.0059505813
| 17> H -1.862672738 0.8646329583 1.1196030874
| 18> H -1.0075430138 -0.9522755663 -1.2003247985
| 19> H -1.0425431592 -1.4353583492 0.4806348118
| 20> H 0.0668759081 1.7945406379 0.3479692003
| 21> H 1.7631307939 1.4137497296 0.3411585135
| 22> *
| 23>
| 24>                          ****END OF INPUT****

CARTESIAN COORDINATES (ANGSTROEM)
---------------------------------
  C     -1.950505    0.489043    0.103223
  C     -0.899980   -0.576785   -0.179667
  C      0.550894   -0.162004   -0.030360
  O      1.456310   -0.985960   -0.162793
  N      0.804690    1.120936    0.242833
  H     -1.874651    1.313893   -0.600806
  H     -2.939186    0.050383   -0.005951
  H     -1.862673    0.864633    1.119603
  H     -1.007543   -0.952276   -1.200325
  H     -1.042543   -1.435358    0.480635
  H      0.066876    1.794541    0.347969
  H      1.763131    1.413750    0.341159

 Total Charge           Charge          ....    0
 Multiplicity           Mult            ....    1
 Number of Electrons    NEL             ....   40
 Basis Dimension        Dim             ....  140

ORBITAL ENERGIES
----------------

  NO   OCC          E(Eh)            E(eV)
   0   2.0000     -18.920203      -514.8449
   1   2.0000     -14.178625      -385.8200
   2   2.0000     -10.134600      -275.7765
   3   2.0000     -10.034036      -273.0400
   4   2.0000     -10.018140      -272.6074
   5   2.0000      -1.005561       -27.3627
   6   2.0000      -0.874498       -23.7963
   7   2.0000      -0.738668       -20.1002
   8   2.0000      -0.618146       -16.8206
   9   2.0000      -0.550316       -14.9749
  10   2.0000      -0.507525       -13.8104
  11   2.0000      -0.433782       -11.8038
  12   2.0000      -0.430696       -11.7198
  13   2.0000      -0.388934       -10.5834
  14   2.0000      -0.368278       -10.0214
  15   2.0000      -0.353462        -9.6182
  16   2.0000      -0.327964        -8.9243
  17   2.0000      -0.311281        -8.4704
  18   2.0000      -0.250557        -6.8180
  19   2.0000      -0.231550        -6.3008
  20   0.0000      -0.003118        -0.0848
  21   0.0000       0.078694         2.1414
  22   0.0000       0.124475         3.3871
  23   0.0000       0.137271         3.7353
  24   0.0000       0.153153         4.1675

MULLIKEN ATOMIC CHARGES
-----------------------
   0 C :   -0.540222
   1 C :   -0.247875
   2 C :    0.292847
   3 O :   -0.548244
   4 N :   -0.434298
   5 H :    0.168648
   6 H :    0.167307
   7 H :    0.171878
   8 H :    0.180352
   9 H :    0.175698
  10 H :    0.318122
  11 H :    0.295786
Sum of atomic charges:    0.0000000

LOEWDIN ATOMIC CHARGES
----------------------
   0 C :   -0.417987
   1 C :   -0.250934
   2 C :    0.301966
   3 O :   -0.578587
   4 N :   -0.462522
   5 H :    0.159371
   6 H :    0.162039
   7 H :    0.159992
   8 H :    0.186750
   9 H :    0.185184
  10 H :    0.278366
  11 H :    0.276362

  Mayer bond orders larger than 0.100000
B(  0-C ,  1-C ) :   0.8802 B(  0-C ,  5-H ) :   0.9751 B(  0-C ,  6-H ) :   0.9534
B(  0-C ,  7-H ) :   0.9791 B(  1-C ,  2-C ) :   1.0113 B(  1-C ,  8-H ) :   0.9162
B(  1-C ,  9-H ) :   0.9292 B(  2-C ,  3-O ) :   1.8234 B(  2-C ,  4-N ) :   1.1971
B(  4-N , 10-H ) :   0.8803 B(  4-N , 11-H ) :   0.8966

Dispersion correction           -0.002477428
FINAL SINGLE POINT ENERGY      -248.488030310026

DIPOLE MOMENT
-------------

Method             : SCF
Type of density    : Electron Density
Multiplicity       :   1
Irrep              :   0
Energy             :  -248.4940542711763953 Eh
Relativity type    :
Basis              : AO
                                X                 Y                 Z
Electronic contribution:      5.073301608      -1.028944911      -0.138986125
Nuclear contribution   :     -6.444125244       2.852544913       0.451384864
                        -----------------------------------------
Total Dipole Moment    :     -1.370823635       1.823600001       0.312398739
                        -----------------------------------------
Magnitude (a.u.)       :      2.302665277
Magnitude (Debye)      :      5.852909995

Rotational constants in cm-1:             0.317998             0.130009             0.095620
Rotational constants in MHz :          9533.334942          3897.582305          2866.609245

                             ****ORCA TERMINATED NORMALLY****
TOTAL RUN TIME: 0 days 0 hours 0 minutes 12 seconds 532 msec
