                         Program Version 6.0.0  -   RELEASE  -
|  1> ! wb97x-v def2-tzvp def2/J RIJCOSX DEFGRID2 scfconv7 GCP(DFT/TZ) printgap
|  2> %output
|  3>     printlevel normal
|  4> end
|  5> * xyz 0 1
|  6> C -2.066704354191682 -0.11038266470145969 -0.39713740104666717
|  7> C -0.8216989524139658 0.0036867074454570085 0.4788199381724919
|  8> C 0.1378103970488139 -1.2092681922094204 0.3149798093469197
|  9> C 1.3309920884880206 -0.6751026797802929 -0.4878270283805168
| 10> C 1.4869913032247006 0.7493970763303147 0.0515384278679347
| 11> C 0.036875757810268535 1.2467343205173607 0.10982159138202663
| 12> H -1.7849878342292071 -0.24452721995785953 -1.4487771008962258
| 13> H -2.6883157585938453 -0.9633353712166667 -0.1028670613255953
| 14> H -2.6828381894282756 0.7937775742167644 -0.32969519816470033
| 15> H -1.1416258335967078 0.0751855168814306 1.5244886097711519
| 16> H 0.48814363487709317 -1.5470085334641686 1.2970504152523339
| 17> H -0.3561068213195837 -2.0600334674283918 -0.1663941756260739
| 18> H 2.2316104385147586 -1.2870608715840806 -0.3748866237268939
| 19> H 1.0833093118708566 -0.6362605027677606 -1.5564571609907072
| 20> H 1.9194532872449017 0.7142616488415331 1.0597390663921056
| 21> H 2.130830339810302 1.3829289790934949 -0.5670796571077648
| 22> H -0.10444909933249732 2.075014806168206 0.8111454291954315
| 23> H -0.26058423440346795 1.6074297348779327 -0.8831899282131536
| 24> *
| 25>
| 26>                          ****END OF INPUT****

CARTESIAN COORDINATES (ANGSTROEM)
---------------------------------
  C     -2.066704   -0.110383   -0.397137
  C     -0.821699    0.003687    0.478820
  C      0.137810   -1.209268    0.314980
  C      1.330992   -0.675103   -0.487827
  C      1.486991    0.749397    0.051538
  C      0.036876    1.246734    0.109822
  H     -1.784988   -0.244527   -1.448777
  H     -2.688316   -0.963335   -0.102867
  H     -2.682838    0.793778   -0.329695
  H     -1.141626    0.075186    1.524489
  H      0.488144   -1.547009    1.297050
  H     -0.356107   -2.060033   -0.166394
  H      2.231610   -1.287061   -0.374887
  H      1.083309   -0.636261   -1.556457
  H      1.919453    0.714262    1.059739
  H      2.130830    1.382929   -0.567080
  H     -0.104449    2.075015    0.811145
  H     -0.260584    1.607430   -0.883190

 Total Charge           Charge          ....    0
 Multiplicity           Mult            ....    1
 Number of Electrons    NEL             ....   48
 Basis Dimension        Dim             ....  258

ORBITAL ENERGIES
----------------

  NO   OCC          E(Eh)            E(eV)
   0   2.0000     -12.042324      -327.6883
   1   2.0000     -12.035342      -327.4983
   2   2.0000     -12.034573      -327.4774
   3   2.0000     -12.032970      -327.4338
   4   2.0000     -12.032844      -327.4303
   5   2.0000     -12.029925      -327.3509
   6   2.0000      -1.343837       -36.5677
   7   2.0000      -1.244542       -33.8657
   8   2.0000      -1.205115       -32.7929
   9   2.0000      -1.141434       -31.0600
  10   2.0000      -1.039976       -28.2992
  11   2.0000      -1.015114       -27.6227
  12   2.0000      -0.914471       -24.8840
  13   2.0000      -0.900154       -24.4944
  14   2.0000      -0.854586       -23.2545
  15   2.0000      -0.842539       -22.9266
  16   2.0000      -0.824737       -22.4422
  17   2.0000      -0.812878       -22.1195
  18   2.0000      -0.781359       -21.2619
  19   2.0000      -0.778131       -21.1740
  20   2.0000      -0.769082       -20.9278
  21   2.0000      -0.757093       -20.6015
  22   2.0000      -0.743523       -20.2323
  23   2.0000      -0.740184       -20.1414
  24   0.0000      -0.042726        -1.1626
  25   0.0000      -0.041066        -1.1175
  26   0.0000      -0.030446        -0.8285
  27   0.0000      -0.026211        -0.7132
  28   0.0000       0.005724         0.1558

MULLIKEN ATOMIC CHARGES
-----------------------
   0 C :   -0.394070
   1 C :    0.030152
   2 C :   -0.206483
   3 C :   -0.187109
   4 C :   -0.158299
   5 C :   -0.225711
   6 H :    0.106277
   7 H :    0.112021
   8 H :    0.112524
   9 H :    0.067094
  10 H :    0.092221
  11 H :    0.098378
  12 H :    0.097239
  13 H :    0.085072
  14 H :    0.085433
  15 H :    0.095194
  16 H :    0.097618
  17 H :    0.092449
Sum of atomic charges:   -0.0000000

LOEWDIN ATOMIC CHARGES
----------------------
   0 C :   -0.291126
   1 C :   -0.261793
   2 C :   -0.229659
   3 C :   -0.256334
   4 C :   -0.256042
   5 C :   -0.229422
   6 H :    0.117678
   7 H :    0.115803
   8 H :    0.117562
   9 H :    0.140258
  10 H :    0.130346
  11 H :    0.128765
  12 H :    0.125673
  13 H :    0.131103
  14 H :    0.131248
  15 H :    0.125669
  16 H :    0.126126
  17 H :    0.134145

  Mayer bond orders larger than 0.100000
B(  0-C ,  1-C ) :   0.9687 B(  0-C ,  6-H ) :   0.9759 B(  0-C ,  7-H ) :   0.9850
B(  0-C ,  8-H ) :   0.9865 B(  1-C ,  2-C ) :   0.9613 B(  1-C ,  5-C ) :   0.9727
B(  1-C ,  9-H ) :   0.9720 B(  2-C ,  3-C ) :   0.9983 B(  2-C , 10-H ) :   0.9767
B(  2-C , 11-H ) :   0.9751 B(  3-C ,  4-C ) :   0.9856 B(  3-C , 12-H ) :   0.9739
B(  3-C , 13-H ) :   0.9747 B(  4-C ,  5-C ) :   0.9954 B(  4-C , 14-H ) :   0.9733
B(  4-C , 15-H ) :   0.9733 B(  5-C , 16-H ) :   0.9721 B(  5-C , 17-H ) :   0.9759

FINAL SINGLE POINT ENERGY      -235.878964454273

DIPOLE MOMENT
-------------

Method             : SCF
Type of density    : Electron Density
Multiplicity       :   1
Irrep              :   0
Energy             :  -235.8913633227724915 Eh
Relativity type    :
Basis              : AO
                                X                 Y                 Z
Electronic contribution:      1.121118727       0.084526972       0.744917456
Nuclear contribution   :     -1.103862765      -0.080138567      -0.704780649
                        -----------------------------------------
Total Dipole Moment    :      0.017255962       0.004388405       0.040136807
                        -----------------------------------------
Magnitude (a.u.)       :      0.043908879
Magnitude (Debye)      :      0.111607500

Rotational constants in cm-1:             0.189951             0.103833             0.080271
Rotational constants in MHz :          5694.574241          3112.823122          2406.464914

                             ****ORCA TERMINATED NORMALLY****
TOTAL RUN TIME: 0 days 0 hours 1 minutes 25 seconds 130 msec
