                         Program Version 6.0.0  -   RELEASE  -
|  1> ! wb97x-v def2-tzvp def2/J RIJCOSX DEFGRID2 scfconv7 GCP(DFT/TZ) printgap
|  2> %output
|  3>     printlevel normal
|  4> end
|  5> %cpcm
|  6>     smd true
|  7>     smdsolvent "water"
|  8> end
|  9> * xyz 0 1
| 10> C -2.066704354191682 -0.11038266470145969 -0.39713740104666717
| 11> C -0.8216989524139658 0.0036867074454570085 0.4788199381724919
| 12> C 0.1378103970488139 -1.2092681922094204 0.3149798093469197
| 13> C 1.3309920884880206 -0.6751026797802929 -0.4878270283805168
| 14> C 1.4869913032247006 0.7493970763303147 0.0515384278679347
| 15> C 0.036875757810268535 1.2467343205173607 0.10982159138202663
| 16> H -1.7849878342292071 -0.24452721995785953 -1.4487771008962258
| 17> H -2.6883157585938453 -0.9633353712166667 -0.1028670613255953
| 18> H -2.6828381894282756 0.7937775742167644 -0.32969519816470033
| 19> H -1.1416258335967078 0.0751855168814306 1.5244886097711519
| 20> H 0.48814363487709317 -1.5470085334641686 1.2970504152523339
| 21> H -0.3561068213195837 -2.0600334674283918 -0.1663941756260739
| 22> H 2.2316104385147586 -1.2870608715840806 -0.3748866237268939
| 23> H 1.0833093118708566 -0.6362605027677606 -1.5564571609907072
| 24> H 1.9194532872449017 0.7142616488415331 1.0597390663921056
| 25> H 2.130830339810302 1.3829289790934949 -0.5670796571077648
| 26> H -0.10444909933249732 2.075014806168206 0.8111454291954315
| 27> H -0.26058423440346795 1.6074297348779327 -0.8831899282131536
| 28> *
| 29>
| 30>                          ****END OF INPUT****

CARTESIAN COORDINATES (ANGSTROEM)
---------------------------------
  C     -2.066704   -0.110383   -0.397137
  C     -0.821699    0.003687    0.478820
  C      0.137810   -1.209268    0.314980
  C      1.330992   -0.675103   -0.487827
  C      1.486991    0.749397    0.051538
  C      0.036876    1.246734    0.109822
  H     -1.784988   -0.244527   -1.448777
  H     -2.688316   -0.963335   -0.102867
  H     -2.682838    0.793778   -0.329695
  H     -1.141626    0.075186    1.524489
  H      0.488144   -1.547009    1.297050
  H     -0.356107   -2.060033   -0.166394
  H      2.231610   -1.287061   -0.374887
  H      1.083309   -0.636261   -1.556457
  H      1.919453    0.714262    1.059739
  H      2.130830    1.382929   -0.567080
  H     -0.104449    2.075015    0.811145
  H     -0.260584    1.607430   -0.883190

 Total Charge           Charge          ....    0
 Multiplicity           Mult            ....    1
 Number of Electrons    NEL             ....   48
 Basis Dimension        Dim             ....  258

ORBITAL ENERGIES
----------------

  NO   OCC          E(Eh)            E(eV)
   0   2.0000     -12.035049      -327.4903
   1   2.0000     -12.028029      -327.2993
   2   2.0000     -12.027235      -327.2777
   3   2.0000     -12.025562      -327.2322
   4   2.0000     -12.025447      -327.2290
   5   2.0000     -12.022337      -327.1444
   6   2.0000      -1.336616       -36.3712
   7   2.0000      -1.237458       -33.6729
   8   2.0000      -1.198101       -32.6020
   9   2.0000      -1.134479       -30.8707
  10   2.0000      -1.033006       -28.1095
  11   2.0000      -1.008080       -27.4313
  12   2.0000      -0.907343       -24.6901
  13   2.0000      -0.892942       -24.2982
  14   2.0000      -0.847325       -23.0569
  15   2.0000      -0.835223       -22.7276
  16   2.0000      -0.817595       -22.2479
  17   2.0000      -0.805657       -21.9230
  18   2.0000      -0.774336       -21.0708
  19   2.0000      -0.771150       -20.9841
  20   2.0000      -0.761852       -20.7311
  21   2.0000      -0.749967       -20.4076
  22   2.0000      -0.736044       -20.0288
  23   2.0000      -0.732659       -19.9367
  24   0.0000      -0.036084        -0.9819
  25   0.0000      -0.034378        -0.9355
  26   0.0000      -0.022698        -0.6177
  27   0.0000      -0.017351        -0.4721
  28   0.0000       0.012859         0.3499

MULLIKEN ATOMIC CHARGES
-----------------------
   0 C :   -0.444250
   1 C :    0.031666
   2 C :   -0.235042
   3 C :   -0.211661
   4 C :   -0.185641
   5 C :   -0.251213
   6 H :    0.122732
   7 H :    0.125590
   8 H :    0.125527
   9 H :    0.078833
  10 H :    0.104237
  11 H :    0.111187
  12 H :    0.110432
  13 H :    0.097750
  14 H :    0.097966
  15 H :    0.108391
  16 H :    0.111084
  17 H :    0.102412
Sum of atomic charges:   -0.0000000

LOEWDIN ATOMIC CHARGES
----------------------
   0 C :   -0.297694
   1 C :   -0.262287
   2 C :   -0.233048
   3 C :   -0.260309
   4 C :   -0.260168
   5 C :   -0.232637
   6 H :    0.120351
   7 H :    0.117446
   8 H :    0.119006
   9 H :    0.142227
  10 H :    0.132263
  11 H :    0.130157
  12 H :    0.127143
  13 H :    0.133464
  14 H :    0.133315
  15 H :    0.127217
  16 H :    0.127725
  17 H :    0.135832

  Mayer bond orders larger than 0.100000
B(  0-C ,  1-C ) :   0.9581 B(  0-C ,  6-H ) :   0.9752 B(  0-C ,  7-H ) :   0.9821
B(  0-C ,  8-H ) :   0.9837 B(  1-C ,  2-C ) :   0.9596 B(  1-C ,  5-C ) :   0.9726
B(  1-C ,  9-H ) :   0.9725 B(  2-C ,  3-C ) :   0.9980 B(  2-C , 10-H ) :   0.9753
B(  2-C , 11-H ) :   0.9739 B(  3-C ,  4-C ) :   0.9857 B(  3-C , 12-H ) :   0.9714
B(  3-C , 13-H ) :   0.9725 B(  4-C ,  5-C ) :   0.9946 B(  4-C , 14-H ) :   0.9719
B(  4-C , 15-H ) :   0.9709 B(  5-C , 16-H ) :   0.9704 B(  5-C , 17-H ) :   0.9747

FINAL SINGLE POINT ENERGY      -235.876719837662

DIPOLE MOMENT
-------------

Method             : SCF
Type of density    : Electron Density
Multiplicity       :   1
Irrep              :   0
Energy             :  -235.8891187061618950 Eh
Relativity type    :
Basis              : AO
                                X                 Y                 Z
Electronic contribution:      1.121549731       0.084942775       0.748909533
Nuclear contribution   :     -1.103862765      -0.080138567      -0.704780649
                        -----------------------------------------
Total Dipole Moment    :      0.017686966       0.004804208       0.044128884
                        -----------------------------------------
Magnitude (a.u.)       :      0.047783550
Magnitude (Debye)      :      0.121456131

Rotational constants in cm-1:             0.189951             0.103833             0.080271
Rotational constants in MHz :          5694.574241          3112.823122          2406.464914

                             ****ORCA TERMINATED NORMALLY****
TOTAL RUN TIME: 0 days 0 hours 1 minutes 21 seconds 283 msec
