                         Program Version 6.0.0  -   RELEASE  -
|  1> ! r2scan-3c def2/J RI DEFGRID2 scfconv6 printgap
|  2> %output
|  3>     printlevel normal
|  4> end
|  5> * xyz 0 1
|  6> C -3.3633702027 -0.1540381213 -0.0484073688
|  7> C -2.178697101 0.7969233505 0.063651709
|  8> C -0.8176941849 0.1510018829 0.0061135472
|  9> C -0.6233658672 -1.2133679764 -0.1496183591
| 10> C 0.6593455641 -1.7374476153 -0.194583584
| 11> C 1.7637364874 -0.9180395643 -0.0861093649
| 12> C 1.5822354742 0.4535528756 0.0705409593
| 13> C 0.2985084033 0.9751693539 0.1152582597
| 14> O 2.6909732061 1.2393235728 0.1750129438
| 15> H -3.3562903074 -0.8784057761 0.7624262796
| 16> H -3.3453605676 -0.6855825966 -0.9967486042
| 17> H -4.2912462116 0.4103933198 0.0075351209
| 18> H -2.2529763446 1.3476777024 1.0058584841
| 19> H -2.2379539873 1.5346530214 -0.7419053734
| 20> H -1.464490693 -1.880801677 -0.2370817421
| 21> H 0.7979924476 -2.8012865465 -0.315995237
| 22> H 2.7674456027 -1.3112504299 -0.1193930684
| 23> H 0.1573097795 2.0408449394 0.2369547917
| 24> H 2.4379254009 2.1688169852 0.2794913526
| 25> *
| 26>
| 27>                          ****END OF INPUT****

CARTESIAN COORDINATES (ANGSTROEM)
---------------------------------
  C     -3.363370   -0.154038   -0.048407
  C     -2.178697    0.796923    0.063652
  C     -0.817694    0.151002    0.006114
  C     -0.623366   -1.213368   -0.149618
  C      0.659346   -1.737448   -0.194584
  C      1.763736   -0.918040   -0.086109
  C      1.582235    0.453553    0.070541
  C      0.298508    0.975169    0.115258
  O      2.690973    1.239324    0.175013
  H     -3.356290   -0.878406    0.762426
  H     -3.345361   -0.685583   -0.996749
  H     -4.291246    0.410393    0.007535
  H     -2.252976    1.347678    1.005858
  H     -2.237954    1.534653   -0.741905
  H     -1.464491   -1.880802   -0.237082
  H      0.797992   -2.801287   -0.315995
  H      2.767446   -1.311250   -0.119393
  H      0.157310    2.040845    0.236955
  H      2.437925    2.168817    0.279491

 Total Charge           Charge          ....    0
 Multiplicity           Mult            ....    1
 Number of Electrons    NEL             ....   66
 Basis Dimension        Dim             ....  226

ORBITAL ENERGIES
----------------

  NO   OCC          E(Eh)            E(eV)
   0   2.0000     -18.983450      -516.5659
   1   2.0000     -10.093900      -274.6690
   2   2.0000     -10.042859      -273.2801
   3   2.0000     -10.036756      -273.1140
   4   2.0000     -10.032343      -272.9939
   5   2.0000     -10.028425      -272.8873
   6   2.0000     -10.024994      -272.7940
   7   2.0000     -10.022689      -272.7312
   8   2.0000     -10.021565      -272.7007
   9   2.0000      -1.026484       -27.9321
  10   2.0000      -0.824288       -22.4300
  11   2.0000      -0.756263       -20.5790
  12   2.0000      -0.708988       -19.2926
  13   2.0000      -0.692696       -18.8492
  14   2.0000      -0.608211       -16.5503
  15   2.0000      -0.590896       -16.0791
  16   2.0000      -0.545892       -14.8545
  17   2.0000      -0.500711       -13.6250
  18   2.0000      -0.468546       -12.7498
  19   2.0000      -0.438923       -11.9437
  20   2.0000      -0.425873       -11.5886
  21   2.0000      -0.406274       -11.0553
  22   2.0000      -0.391605       -10.6561
  23   2.0000      -0.378290       -10.2938
  24   2.0000      -0.360003        -9.7962
  25   2.0000      -0.347468        -9.4551
  26   2.0000      -0.338384        -9.2079
  27   2.0000      -0.332346        -9.0436
  28   2.0000      -0.313160        -8.5215
  29   2.0000      -0.300607        -8.1799
  30   2.0000      -0.298484        -8.1222
  31   2.0000      -0.226264        -6.1570
  32   2.0000      -0.203251        -5.5308
  33   0.0000      -0.030868        -0.8399
  34   0.0000      -0.009625        -0.2619
  35   0.0000       0.057375         1.5613
  36   0.0000       0.085336         2.3221
  37   0.0000       0.098918         2.6917

MULLIKEN ATOMIC CHARGES
-----------------------
   0 C :   -0.504226
   1 C :   -0.306811
   2 C :    0.171682
   3 C :   -0.215449
   4 C :   -0.140781
   5 C :   -0.295490
   6 C :    0.446840
   7 C :   -0.413464
   8 O :   -0.412369
   9 H :    0.157632
  10 H :    0.156823
  11 H :    0.149618
  12 H :    0.158405
  13 H :    0.158981
  14 H :    0.143915
  15 H :    0.145184
  16 H :    0.156605
  17 H :    0.133226
  18 H :    0.309681
Sum of atomic charges:    0.0000000

LOEWDIN ATOMIC CHARGES
----------------------
   0 C :   -0.420064
   1 C :   -0.286944
   2 C :   -0.077706
   3 C :   -0.192702
   4 C :   -0.147982
   5 C :   -0.151781
   6 C :    0.185295
   7 C :   -0.171861
   8 O :   -0.498369
   9 H :    0.153854
  10 H :    0.153706
  11 H :    0.153103
  12 H :    0.165566
  13 H :    0.165725
  14 H :    0.170216
  15 H :    0.167504
  16 H :    0.178957
  17 H :    0.170019
  18 H :    0.283465

  Mayer bond orders larger than 0.100000
B(  0-C ,  1-C ) :   0.8553 B(  0-C ,  9-H ) :   0.9832 B(  0-C , 10-H ) :   0.9819
B(  0-C , 11-H ) :   0.9705 B(  1-C ,  2-C ) :   0.8283 B(  1-C , 12-H ) :   0.9817
B(  1-C , 13-H ) :   0.9795 B(  2-C ,  3-C ) :   1.4686 B(  2-C ,  7-C ) :   1.3891
B(  3-C ,  4-C ) :   1.4069 B(  3-C , 14-H ) :   0.9440 B(  4-C ,  5-C ) :   1.4147
B(  4-C , 15-H ) :   0.9498 B(  5-C ,  6-C ) :   1.4115 B(  5-C , 16-H ) :   0.9448
B(  6-C ,  7-C ) :   1.3646 B(  6-C ,  8-O ) :   0.9202 B(  7-C , 17-H ) :   0.9433
B(  8-O , 18-H ) :   0.8839

Dispersion correction           -0.006073137
FINAL SINGLE POINT ENERGY      -386.000460151119

DIPOLE MOMENT
-------------

Method             : SCF
Type of density    : Electron Density
Multiplicity       :   1
Irrep              :   0
Energy             :  -386.0012170598226930 Eh
Relativity type    :
Basis              : AO
                                X                 Y                 Z
Electronic contribution:      9.612298965       0.529169704       0.160232258
Nuclear contribution   :    -10.080750646      -0.033177128      -0.108915152
                        -----------------------------------------
Total Dipole Moment    :     -0.468451681       0.495992576       0.051317106
                        -----------------------------------------
Magnitude (a.u.)       :      0.684170343
Magnitude (Debye)      :      1.739022809

Rotational constants in cm-1:             0.119131             0.036001             0.027934
Rotational constants in MHz :          3571.443955          1079.281951           837.432460

                             ****ORCA TERMINATED NORMALLY****
TOTAL RUN TIME: 0 days 0 hours 0 minutes 29 seconds 648 msec
