                         Program Version 6.0.0  -   RELEASE  -
|  1> ! r2scan-3c def2/J RI DEFGRID2 scfconv6 printgap
|  2> %output
|  3>     printlevel normal
|  4> end
|  5> %cpcm
|  6>     smd true
|  7>     smdsolvent "water"
|  8> end
|  9> * xyz 0 1
| 10> C -3.3633702027 -0.1540381213 -0.0484073688
| 11> C -2.178697101 0.7969233505 0.063651709
| 12> C -0.8176941849 0.1510018829 0.0061135472
| 13> C -0.6233658672 -1.2133679764 -0.1496183591
| 14> C 0.6593455641 -1.7374476153 -0.194583584
| 15> C 1.7637364874 -0.9180395643 -0.0861093649
| 16> C 1.5822354742 0.4535528756 0.0705409593
| 17> C 0.2985084033 0.9751693539 0.1152582597
| 18> O 2.6909732061 1.2393235728 0.1750129438
| 19> H -3.3562903074 -0.8784057761 0.7624262796
| 20> H -3.3453605676 -0.6855825966 -0.9967486042
| 21> H -4.2912462116 0.4103933198 0.0075351209
| 22> H -2.2529763446 1.3476777024 1.0058584841
| 23> H -2.2379539873 1.5346530214 -0.7419053734
| 24> H -1.464490693 -1.880801677 -0.2370817421
| 25> H 0.7979924476 -2.8012865465 -0.315995237
| 26> H 2.7674456027 -1.3112504299 -0.1193930684
| 27> H 0.1573097795 2.0408449394 0.2369547917
| 28> H 2.4379254009 2.1688169852 0.2794913526
| 29> *
| 30>
| 31>                          ****END OF INPUT****

CARTESIAN COORDINATES (ANGSTROEM)
---------------------------------
  C     -3.363370   -0.154038   -0.048407
  C     -2.178697    0.796923    0.063652
  C     -0.817694    0.151002    0.006114
  C     -0.623366   -1.213368   -0.149618
  C      0.659346   -1.737448   -0.194584
  C      1.763736   -0.918040   -0.086109
  C      1.582235    0.453553    0.070541
  C      0.298508    0.975169    0.115258
  O      2.690973    1.239324    0.175013
  H     -3.356290   -0.878406    0.762426
  H     -3.345361   -0.685583   -0.996749
  H     -4.291246    0.410393    0.007535
  H     -2.252976    1.347678    1.005858
  H     -2.237954    1.534653   -0.741905
  H     -1.464491   -1.880802   -0.237082
  H      0.797992   -2.801287   -0.315995
  H      2.767446   -1.311250   -0.119393
  H      0.157310    2.040845    0.236955
  H      2.437925    2.168817    0.279491

 Total Charge           Charge          ....    0
 Multiplicity           Mult            ....    1
 Number of Electrons    NEL             ....   66
 Basis Dimension        Dim             ....  226

ORBITAL ENERGIES
----------------

  NO   OCC          E(Eh)            E(eV)
   0   2.0000     -18.981848      -516.5224
   1   2.0000     -10.094936      -274.6972
   2   2.0000     -10.041990      -273.2564
   3   2.0000     -10.032900      -273.0091
   4   2.0000     -10.026999      -272.8485
   5   2.0000     -10.026435      -272.8332
   6   2.0000     -10.025091      -272.7966
   7   2.0000     -10.021218      -272.6912
   8   2.0000     -10.011634      -272.4304
   9   2.0000      -1.024866       -27.8880
  10   2.0000      -0.824996       -22.4493
  11   2.0000      -0.751921       -20.4608
  12   2.0000      -0.707898       -19.2629
  13   2.0000      -0.689391       -18.7593
  14   2.0000      -0.601998       -16.3812
  15   2.0000      -0.588365       -16.0102
  16   2.0000      -0.542429       -14.7602
  17   2.0000      -0.496720       -13.5164
  18   2.0000      -0.465360       -12.6631
  19   2.0000      -0.437231       -11.8977
  20   2.0000      -0.417123       -11.3505
  21   2.0000      -0.401746       -10.9321
  22   2.0000      -0.386948       -10.5294
  23   2.0000      -0.381077       -10.3696
  24   2.0000      -0.359395        -9.7796
  25   2.0000      -0.342981        -9.3330
  26   2.0000      -0.331179        -9.0118
  27   2.0000      -0.325595        -8.8599
  28   2.0000      -0.308081        -8.3833
  29   2.0000      -0.301232        -8.1970
  30   2.0000      -0.294152        -8.0043
  31   2.0000      -0.228129        -6.2077
  32   2.0000      -0.206910        -5.6303
  33   0.0000      -0.032640        -0.8882
  34   0.0000      -0.012649        -0.3442
  35   0.0000       0.081027         2.2049
  36   0.0000       0.095130         2.5886
  37   0.0000       0.109623         2.9830

MULLIKEN ATOMIC CHARGES
-----------------------
   0 C :   -0.524950
   1 C :   -0.302044
   2 C :    0.138325
   3 C :   -0.245261
   4 C :   -0.194772
   5 C :   -0.332108
   6 C :    0.376322
   7 C :   -0.384316
   8 O :   -0.458646
   9 H :    0.164570
  10 H :    0.164030
  11 H :    0.163100
  12 H :    0.176136
  13 H :    0.176549
  14 H :    0.173166
  15 H :    0.177329
  16 H :    0.183524
  17 H :    0.179471
  18 H :    0.369575
Sum of atomic charges:    0.0000000

LOEWDIN ATOMIC CHARGES
----------------------
   0 C :   -0.425377
   1 C :   -0.286958
   2 C :   -0.085217
   3 C :   -0.206684
   4 C :   -0.162611
   5 C :   -0.172454
   6 C :    0.171173
   7 C :   -0.166312
   8 O :   -0.516215
   9 H :    0.155894
  10 H :    0.155866
  11 H :    0.156977
  12 H :    0.172326
  13 H :    0.172446
  14 H :    0.179372
  15 H :    0.177941
  16 H :    0.186192
  17 H :    0.188288
  18 H :    0.305354

  Mayer bond orders larger than 0.100000
B(  0-C ,  1-C ) :   0.8461 B(  0-C ,  9-H ) :   0.9798 B(  0-C , 10-H ) :   0.9784
B(  0-C , 11-H ) :   0.9680 B(  1-C ,  2-C ) :   0.8449 B(  1-C , 12-H ) :   0.9781
B(  1-C , 13-H ) :   0.9758 B(  2-C ,  3-C ) :   1.4117 B(  2-C ,  7-C ) :   1.3540
B(  3-C ,  4-C ) :   1.3811 B(  3-C , 14-H ) :   0.9534 B(  4-C ,  5-C ) :   1.3915
B(  4-C , 15-H ) :   0.9600 B(  5-C ,  6-C ) :   1.3498 B(  5-C , 16-H ) :   0.9542
B(  6-C ,  7-C ) :   1.3864 B(  6-C ,  8-O ) :   0.9264 B(  7-C , 17-H ) :   0.9545
B(  8-O , 18-H ) :   0.8523

Dispersion correction           -0.006073137
FINAL SINGLE POINT ENERGY      -386.009025868726

DIPOLE MOMENT
-------------

Method             : SCF
Type of density    : Electron Density
Multiplicity       :   1
Irrep              :   0
Energy             :  -386.0097827774291090 Eh
Relativity type    :
Basis              : AO
                                X                 Y                 Z
Electronic contribution:      9.398671198       0.820536951       0.190848824
Nuclear contribution   :    -10.080750646      -0.033177128      -0.108915152
                        -----------------------------------------
Total Dipole Moment    :     -0.682079448       0.787359824       0.081933672
                        -----------------------------------------
Magnitude (a.u.)       :      1.044931094
Magnitude (Debye)      :      2.656003766

Rotational constants in cm-1:             0.119131             0.036001             0.027934
Rotational constants in MHz :          3571.443955          1079.281951           837.432460

                             ****ORCA TERMINATED NORMALLY****
TOTAL RUN TIME: 0 days 0 hours 0 minutes 35 seconds 562 msec
