                         Program Version 6.0.0  -   RELEASE  -
|  1> ! r2scan-3c def2/J RI DEFGRID2 scfconv6 printgap
|  2> %output
|  3>     printlevel normal
|  4> end
|  5> * xyz 0 1
|  6> C -2.2369305496 0.2710320125 2.08515e-05
|  7> C -1.776302227 -1.038149297 -2.58676e-05
|  8> C -0.4189058904 -1.2934149124 -4.39223e-05
|  9> C 0.4903390965 -0.2327083369 1.85597e-05
| 10> C 0.0174144116 1.083115651 -7.65351e-05
| 11> C -1.3405089339 1.3306933101 3.69912e-05
| 12> C 1.9232570848 -0.4959093389 1.9022e-05
| 13> O 2.7985266939 0.3469103662 2.57153e-05
| 14> H -3.2981370759 0.4662405844 -0.0001167877
| 15> H -2.4790107638 -1.8566655245 0.0005283945
| 16> H -0.0509721165 -2.3084242543 -0.0002249508
| 17> H 0.7380128857 1.8874110626 -0.000256378
| 18> H -1.7037506886 2.3464813051 0.0001991934
| 19> H 2.1911644162 -1.5690710735 6.8877e-05
| 20> *
| 21>
| 22>                          ****END OF INPUT****

CARTESIAN COORDINATES (ANGSTROEM)
---------------------------------
  C     -2.236931    0.271032    0.000021
  C     -1.776302   -1.038149   -0.000026
  C     -0.418906   -1.293415   -0.000044
  C      0.490339   -0.232708    0.000019
  C      0.017414    1.083116   -0.000077
  C     -1.340509    1.330693    0.000037
  C      1.923257   -0.495909    0.000019
  O      2.798527    0.346910    0.000026
  H     -3.298137    0.466241   -0.000117
  H     -2.479011   -1.856666    0.000528
  H     -0.050972   -2.308424   -0.000225
  H      0.738013    1.887411   -0.000256
  H     -1.703751    2.346481    0.000199
  H      2.191164   -1.569071    0.000069

 Total Charge           Charge          ....    0
 Multiplicity           Mult            ....    1
 Number of Electrons    NEL             ....   56
 Basis Dimension        Dim             ....  187

ORBITAL ENERGIES
----------------

  NO   OCC          E(Eh)            E(eV)
   0   2.0000     -18.946960      -515.5730
   1   2.0000     -10.118665      -275.3429
   2   2.0000     -10.061009      -273.7740
   3   2.0000     -10.059515      -273.7333
   4   2.0000     -10.057175      -273.6696
   5   2.0000     -10.055657      -273.6283
   6   2.0000     -10.054927      -273.6085
   7   2.0000     -10.054186      -273.5883
   8   2.0000      -1.008674       -27.4474
   9   2.0000      -0.848076       -23.0773
  10   2.0000      -0.750848       -20.4316
  11   2.0000      -0.737540       -20.0695
  12   2.0000      -0.631329       -17.1793
  13   2.0000      -0.596360       -16.2278
  14   2.0000      -0.550211       -14.9720
  15   2.0000      -0.500443       -13.6177
  16   2.0000      -0.460136       -12.5209
  17   2.0000      -0.438174       -11.9233
  18   2.0000      -0.415925       -11.3179
  19   2.0000      -0.410129       -11.1602
  20   2.0000      -0.395788       -10.7699
  21   2.0000      -0.388594       -10.5742
  22   2.0000      -0.348180        -9.4745
  23   2.0000      -0.343890        -9.3577
  24   2.0000      -0.328799        -8.9471
  25   2.0000      -0.259904        -7.0723
  26   2.0000      -0.255773        -6.9599
  27   2.0000      -0.226221        -6.1558
  28   0.0000      -0.100103        -2.7239
  29   0.0000      -0.050654        -1.3784
  30   0.0000       0.001964         0.0534
  31   0.0000       0.076526         2.0824
  32   0.0000       0.095434         2.5969

MULLIKEN ATOMIC CHARGES
-----------------------
   0 C :   -0.110070
   1 C :   -0.152764
   2 C :   -0.213660
   3 C :    0.222643
   4 C :   -0.163179
   5 C :   -0.146685
   6 C :    0.019192
   7 O :   -0.345932
   8 H :    0.151439
   9 H :    0.149801
  10 H :    0.154465
  11 H :    0.181217
  12 H :    0.150815
  13 H :    0.102718
Sum of atomic charges:   -0.0000000

LOEWDIN ATOMIC CHARGES
----------------------
   0 C :   -0.136989
   1 C :   -0.159841
   2 C :   -0.131482
   3 C :   -0.101591
   4 C :   -0.100629
   5 C :   -0.155290
   6 C :    0.214130
   7 O :   -0.457528
   8 H :    0.170131
   9 H :    0.170187
  10 H :    0.173625
  11 H :    0.187999
  12 H :    0.170768
  13 H :    0.156510

  Mayer bond orders larger than 0.100000
B(  0-C ,  1-C ) :   1.4175 B(  0-C ,  5-C ) :   1.3862 B(  0-C ,  8-H ) :   0.9459
B(  1-C ,  2-C ) :   1.4360 B(  1-C ,  9-H ) :   0.9510 B(  2-C ,  3-C ) :   1.3618
B(  2-C , 10-H ) :   0.9314 B(  3-C ,  4-C ) :   1.3709 B(  3-C ,  6-C ) :   0.8415
B(  3-C ,  7-O ) :  -0.1151 B(  3-C , 13-H ) :  -0.1238 B(  4-C ,  5-C ) :   1.4257
B(  4-C , 11-H ) :   0.9581 B(  5-C , 12-H ) :   0.9560 B(  6-C ,  7-O ) :   1.9542
B(  6-C , 13-H ) :   1.0464

Dispersion correction           -0.004455595
FINAL SINGLE POINT ENERGY      -345.489369356392

DIPOLE MOMENT
-------------

Method             : SCF
Type of density    : Electron Density
Multiplicity       :   1
Irrep              :   0
Energy             :  -345.4885487847964214 Eh
Relativity type    :
Basis              : AO
                                X                 Y                 Z
Electronic contribution:      2.949832142       0.521219148      -0.000131128
Nuclear contribution   :     -4.276628399      -0.964954029       0.000186467
                        -----------------------------------------
Total Dipole Moment    :     -1.326796257      -0.443734880       0.000055338
                        -----------------------------------------
Magnitude (a.u.)       :      1.399031434
Magnitude (Debye)      :      3.556055302

Rotational constants in cm-1:             0.176525             0.052715             0.040593
Rotational constants in MHz :          5292.085160          1580.367258          1216.951043

                             ****ORCA TERMINATED NORMALLY****
TOTAL RUN TIME: 0 days 0 hours 0 minutes 22 seconds 186 msec
