                         Program Version 6.0.0  -   RELEASE  -
|  1> ! r2scan-3c def2/J RI DEFGRID2 scfconv6 printgap
|  2> %output
|  3>     printlevel normal
|  4> end
|  5> %cpcm
|  6>     smd true
|  7>     smdsolvent "water"
|  8> end
|  9> * xyz 0 1
| 10> C -2.2369305496 0.2710320125 2.08515e-05
| 11> C -1.776302227 -1.038149297 -2.58676e-05
| 12> C -0.4189058904 -1.2934149124 -4.39223e-05
| 13> C 0.4903390965 -0.2327083369 1.85597e-05
| 14> C 0.0174144116 1.083115651 -7.65351e-05
| 15> C -1.3405089339 1.3306933101 3.69912e-05
| 16> C 1.9232570848 -0.4959093389 1.9022e-05
| 17> O 2.7985266939 0.3469103662 2.57153e-05
| 18> H -3.2981370759 0.4662405844 -0.0001167877
| 19> H -2.4790107638 -1.8566655245 0.0005283945
| 20> H -0.0509721165 -2.3084242543 -0.0002249508
| 21> H 0.7380128857 1.8874110626 -0.000256378
| 22> H -1.7037506886 2.3464813051 0.0001991934
| 23> H 2.1911644162 -1.5690710735 6.8877e-05
| 24> *
| 25>
| 26>                          ****END OF INPUT****

CARTESIAN COORDINATES (ANGSTROEM)
---------------------------------
  C     -2.236931    0.271032    0.000021
  C     -1.776302   -1.038149   -0.000026
  C     -0.418906   -1.293415   -0.000044
  C      0.490339   -0.232708    0.000019
  C      0.017414    1.083116   -0.000077
  C     -1.340509    1.330693    0.000037
  C      1.923257   -0.495909    0.000019
  O      2.798527    0.346910    0.000026
  H     -3.298137    0.466241   -0.000117
  H     -2.479011   -1.856666    0.000528
  H     -0.050972   -2.308424   -0.000225
  H      0.738013    1.887411   -0.000256
  H     -1.703751    2.346481    0.000199
  H      2.191164   -1.569071    0.000069

 Total Charge           Charge          ....    0
 Multiplicity           Mult            ....    1
 Number of Electrons    NEL             ....   56
 Basis Dimension        Dim             ....  187

ORBITAL ENERGIES
----------------

  NO   OCC          E(Eh)            E(eV)
   0   2.0000     -18.955766      -515.8126
   1   2.0000     -10.122937      -275.4591
   2   2.0000     -10.050874      -273.4982
   3   2.0000     -10.050374      -273.4846
   4   2.0000     -10.048701      -273.4391
   5   2.0000     -10.047601      -273.4091
   6   2.0000     -10.043460      -273.2964
   7   2.0000     -10.043400      -273.2948
   8   2.0000      -1.019974       -27.7549
   9   2.0000      -0.840137       -22.8613
  10   2.0000      -0.743158       -20.2224
  11   2.0000      -0.727911       -19.8075
  12   2.0000      -0.624902       -17.0044
  13   2.0000      -0.585978       -15.9453
  14   2.0000      -0.542593       -14.7647
  15   2.0000      -0.492335       -13.3971
  16   2.0000      -0.453838       -12.3496
  17   2.0000      -0.432963       -11.7815
  18   2.0000      -0.407485       -11.0882
  19   2.0000      -0.403454       -10.9785
  20   2.0000      -0.397095       -10.8055
  21   2.0000      -0.391460       -10.6522
  22   2.0000      -0.348215        -9.4754
  23   2.0000      -0.332853        -9.0574
  24   2.0000      -0.316960        -8.6249
  25   2.0000      -0.253840        -6.9073
  26   2.0000      -0.250448        -6.8150
  27   2.0000      -0.236190        -6.4271
  28   0.0000      -0.099518        -2.7080
  29   0.0000      -0.042283        -1.1506
  30   0.0000       0.005800         0.1578
  31   0.0000       0.092958         2.5295
  32   0.0000       0.110445         3.0054

MULLIKEN ATOMIC CHARGES
-----------------------
   0 C :   -0.123649
   1 C :   -0.185840
   2 C :   -0.214489
   3 C :    0.193191
   4 C :   -0.186020
   5 C :   -0.192604
   6 C :    0.066627
   7 O :   -0.444397
   8 H :    0.188176
   9 H :    0.185332
  10 H :    0.192476
  11 H :    0.195357
  12 H :    0.185169
  13 H :    0.140671
Sum of atomic charges:   -0.0000000

LOEWDIN ATOMIC CHARGES
----------------------
   0 C :   -0.131804
   1 C :   -0.162311
   2 C :   -0.122740
   3 C :   -0.113324
   4 C :   -0.111038
   5 C :   -0.158996
   6 C :    0.231345
   7 O :   -0.533325
   8 H :    0.182768
   9 H :    0.182473
  10 H :    0.188117
  11 H :    0.190385
  12 H :    0.182372
  13 H :    0.176078

  Mayer bond orders larger than 0.100000
B(  0-C ,  1-C ) :   1.3840 B(  0-C ,  5-C ) :   1.3619 B(  0-C ,  8-H ) :   0.9467
B(  1-C ,  2-C ) :   1.4106 B(  1-C ,  9-H ) :   0.9561 B(  2-C ,  3-C ) :   1.3555
B(  2-C , 10-H ) :   0.9329 B(  3-C ,  4-C ) :   1.2917 B(  3-C ,  6-C ) :   0.9019
B(  3-C ,  7-O ) :  -0.1102 B(  4-C ,  5-C ) :   1.4250 B(  4-C , 11-H ) :   0.9604
B(  5-C , 12-H ) :   0.9584 B(  6-C ,  7-O ) :   1.8818 B(  6-C , 13-H ) :   1.0153

Dispersion correction           -0.004455595
FINAL SINGLE POINT ENERGY      -345.496148482929

DIPOLE MOMENT
-------------

Method             : SCF
Type of density    : Electron Density
Multiplicity       :   1
Irrep              :   0
Energy             :  -345.4953279113331632 Eh
Relativity type    :
Basis              : AO
                                X                 Y                 Z
Electronic contribution:      2.385852479       0.214431380      -0.000114223
Nuclear contribution   :     -4.276628399      -0.964954029       0.000186467
                        -----------------------------------------
Total Dipole Moment    :     -1.890775920      -0.750522648       0.000072243
                        -----------------------------------------
Magnitude (a.u.)       :      2.034285583
Magnitude (Debye)      :      5.170743026

Rotational constants in cm-1:             0.176525             0.052715             0.040593
Rotational constants in MHz :          5292.085160          1580.367258          1216.951043

                             ****ORCA TERMINATED NORMALLY****
TOTAL RUN TIME: 0 days 0 hours 0 minutes 24 seconds 367 msec
