                         Program Version 6.0.0  -   RELEASE  -
|  1> ! wb97x-v def2-tzvp def2/J RIJCOSX DEFGRID2 scfconv7 GCP(DFT/TZ) printgap
|  2> %output
|  3>     printlevel normal
|  4> end
|  5> * xyz 0 1
|  6> C -2.09512571153411 0.31232125862844834 1.4044185622745666
|  7> C -1.5195001521640603 -0.02856648283360186 0.021936719923151167
|  8> C -2.079420786575929 -1.3966007908329028 -0.3977677078992284
|  9> C -1.991321658528363 1.0337295249607927 -0.9887838899514007
| 10> C 0.012212742189632725 -0.027634104970765714 0.029271679351048078
| 11> C 0.7386553374358322 0.7836979445414404 0.9106469462315077
| 12> C 2.131256000347903 0.8238946121203347 0.8793198826425828
| 13> C 2.8380889968652907 0.05261704900215127 -0.03857743381121863
| 14> C 2.132765932795367 -0.7552436777872181 -0.9263083035802978
| 15> C 0.740700018074067 -0.7921071774588982 -0.8922386145552642
| 16> H -3.186304510949469 0.23160363876215412 1.3709218058453065
| 17> H -1.7257524682146688 -0.37873128584623666 2.1698722807805764
| 18> H -1.8547352296618485 1.3326598877885814 1.7156970485989633
| 19> H -3.171451101288961 -1.3798012845633374 -0.32130174792041305
| 20> H -1.8304310072765106 -1.6480616447995293 -1.4323490156567371
| 21> H -1.7039912082665603 -2.194545908556741 0.25207671602287457
| 22> H -1.6218358069854582 0.8060417950248062 -1.9944523844259407
| 23> H -3.0865561389357823 1.063398183576007 -1.0227034861405842
| 24> H -1.6285402655705088 2.028179844206013 -0.7071673863150243
| 25> H 0.22100793287438747 1.3991627726939393 1.6377479898981937
| 26> H 2.6633754430931793 1.4612063451933852 1.5795239611651342
| 27> H 3.923033112495227 0.07989678447229542 -0.06153038354849418
| 28> H 2.6663355025026423 -1.3636327984949939 -1.6507317537164592
| 29> H 0.2235258951549625 -1.4304790598125359 -1.5999715342859366
| 30> *
| 31>
| 32>                          ****END OF INPUT****

CARTESIAN COORDINATES (ANGSTROEM)
---------------------------------
  C     -2.095126    0.312321    1.404419
  C     -1.519500   -0.028566    0.021937
  C     -2.079421   -1.396601   -0.397768
  C     -1.991322    1.033730   -0.988784
  C      0.012213   -0.027634    0.029272
  C      0.738655    0.783698    0.910647
  C      2.131256    0.823895    0.879320
  C      2.838089    0.052617   -0.038577
  C      2.132766   -0.755244   -0.926308
  C      0.740700   -0.792107   -0.892239
  H     -3.186305    0.231604    1.370922
  H     -1.725752   -0.378731    2.169872
  H     -1.854735    1.332660    1.715697
  H     -3.171451   -1.379801   -0.321302
  H     -1.830431   -1.648062   -1.432349
  H     -1.703991   -2.194546    0.252077
  H     -1.621836    0.806042   -1.994452
  H     -3.086556    1.063398   -1.022703
  H     -1.628540    2.028180   -0.707167
  H      0.221008    1.399163    1.637748
  H      2.663375    1.461206    1.579524
  H      3.923033    0.079897   -0.061530
  H      2.666336   -1.363633   -1.650732
  H      0.223526   -1.430479   -1.599972

 Total Charge           Charge          ....    0
 Multiplicity           Mult            ....    1
 Number of Electrons    NEL             ....   74
 Basis Dimension        Dim             ....  394

ORBITAL ENERGIES
----------------

  NO   OCC          E(Eh)            E(eV)
   0   2.0000     -12.065374      -328.3155
   1   2.0000     -12.056068      -328.0623
   2   2.0000     -12.048810      -327.8648
   3   2.0000     -12.048623      -327.8597
   4   2.0000     -12.045671      -327.7794
   5   2.0000     -12.045037      -327.7621
   6   2.0000     -12.044402      -327.7448
   7   2.0000     -12.035037      -327.4900
   8   2.0000     -12.034930      -327.4871
   9   2.0000     -12.034480      -327.4748
  10   2.0000      -1.383054       -37.6348
  11   2.0000      -1.330264       -36.1983
  12   2.0000      -1.267861       -34.5002
  13   2.0000      -1.257540       -34.2194
  14   2.0000      -1.179971       -32.1086
  15   2.0000      -1.178355       -32.0647
  16   2.0000      -1.111913       -30.2567
  17   2.0000      -1.099342       -29.9146
  18   2.0000      -1.029942       -28.0261
  19   2.0000      -0.958093       -26.0710
  20   2.0000      -0.948342       -25.8057
  21   2.0000      -0.913544       -24.8588
  22   2.0000      -0.892674       -24.2909
  23   2.0000      -0.874450       -23.7950
  24   2.0000      -0.870979       -23.7005
  25   2.0000      -0.863803       -23.5053
  26   2.0000      -0.828298       -22.5391
  27   2.0000      -0.817398       -22.2425
  28   2.0000      -0.811880       -22.0924
  29   2.0000      -0.805453       -21.9175
  30   2.0000      -0.795313       -21.6416
  31   2.0000      -0.778034       -21.1714
  32   2.0000      -0.775369       -21.0989
  33   2.0000      -0.770574       -20.9684
  34   2.0000      -0.757657       -20.6169
  35   2.0000      -0.633834       -17.2475
  36   2.0000      -0.632380       -17.2079
  37   0.0000      -0.238471        -6.4891
  38   0.0000      -0.232603        -6.3295
  39   0.0000      -0.072091        -1.9617
  40   0.0000      -0.056578        -1.5396
  41   0.0000      -0.035679        -0.9709

MULLIKEN ATOMIC CHARGES
-----------------------
   0 C :   -0.370999
   1 C :    0.086627
   2 C :   -0.366385
   3 C :   -0.350985
   4 C :    0.209078
   5 C :   -0.219096
   6 C :   -0.123185
   7 C :   -0.131610
   8 C :   -0.124303
   9 C :   -0.220693
  10 H :    0.115255
  11 H :    0.126719
  12 H :    0.111735
  13 H :    0.114503
  14 H :    0.110411
  15 H :    0.125352
  16 H :    0.115865
  17 H :    0.109229
  18 H :    0.116551
  19 H :    0.112445
  20 H :    0.113909
  21 H :    0.114628
  22 H :    0.113960
  23 H :    0.110988
Sum of atomic charges:   -0.0000000

LOEWDIN ATOMIC CHARGES
----------------------
   0 C :   -0.253801
   1 C :   -0.311480
   2 C :   -0.252634
   3 C :   -0.245454
   4 C :   -0.092937
   5 C :   -0.110335
   6 C :   -0.140724
   7 C :   -0.147233
   8 C :   -0.140817
   9 C :   -0.109671
  10 H :    0.122116
  11 H :    0.124529
  12 H :    0.117684
  13 H :    0.121894
  14 H :    0.117327
  15 H :    0.124566
  16 H :    0.122370
  17 H :    0.120299
  18 H :    0.122630
  19 H :    0.145306
  20 H :    0.140815
  21 H :    0.139831
  22 H :    0.140828
  23 H :    0.144890

  Mayer bond orders larger than 0.100000
B(  0-C ,  1-C ) :   0.9767 B(  0-C , 10-H ) :   0.9811 B(  0-C , 11-H ) :   0.9813
B(  0-C , 12-H ) :   0.9706 B(  1-C ,  2-C ) :   0.9806 B(  1-C ,  3-C ) :   0.9866
B(  1-C ,  4-C ) :   0.9006 B(  2-C , 13-H ) :   0.9805 B(  2-C , 14-H ) :   0.9710
B(  2-C , 15-H ) :   0.9804 B(  3-C , 16-H ) :   0.9746 B(  3-C , 17-H ) :   0.9756
B(  3-C , 18-H ) :   0.9753 B(  4-C ,  5-C ) :   1.3544 B(  4-C ,  9-C ) :   1.3492
B(  5-C ,  6-C ) :   1.4649 B(  5-C , 19-H ) :   0.9704 B(  6-C ,  7-C ) :   1.4230
B(  6-C , 20-H ) :   0.9753 B(  7-C ,  8-C ) :   1.4195 B(  7-C , 21-H ) :   0.9745
B(  8-C ,  9-C ) :   1.4698 B(  8-C , 22-H ) :   0.9753 B(  9-C , 23-H ) :   0.9716

FINAL SINGLE POINT ENERGY      -389.516317814303

DIPOLE MOMENT
-------------

Method             : SCF
Type of density    : Electron Density
Multiplicity       :   1
Irrep              :   0
Energy             :  -389.5314570431026482 Eh
Relativity type    :
Basis              : AO
                                X                 Y                 Z
Electronic contribution:      9.397519396       0.007863891       0.049737425
Nuclear contribution   :     -9.557254206      -0.001388719      -0.056293380
                        -----------------------------------------
Total Dipole Moment    :     -0.159734810       0.006475172      -0.006555954
                        -----------------------------------------
Magnitude (a.u.)       :      0.160000368
Magnitude (Debye)      :      0.406688615

Rotational constants in cm-1:             0.085506             0.031658             0.027222
Rotational constants in MHz :          2563.406113           949.074411           816.094188

                             ****ORCA TERMINATED NORMALLY****
TOTAL RUN TIME: 0 days 0 hours 5 minutes 17 seconds 663 msec
