                         Program Version 6.0.0  -   RELEASE  -
|  1> ! wb97x-v def2-tzvp def2/J RIJCOSX DEFGRID2 scfconv7 GCP(DFT/TZ) printgap
|  2> %output
|  3>     printlevel normal
|  4> end
|  5> %cpcm
|  6>     smd true
|  7>     smdsolvent "water"
|  8> end
|  9> * xyz 0 1
| 10> C -2.09512571153411 0.31232125862844834 1.4044185622745666
| 11> C -1.5195001521640603 -0.02856648283360186 0.021936719923151167
| 12> C -2.079420786575929 -1.3966007908329028 -0.3977677078992284
| 13> C -1.991321658528363 1.0337295249607927 -0.9887838899514007
| 14> C 0.012212742189632725 -0.027634104970765714 0.029271679351048078
| 15> C 0.7386553374358322 0.7836979445414404 0.9106469462315077
| 16> C 2.131256000347903 0.8238946121203347 0.8793198826425828
| 17> C 2.8380889968652907 0.05261704900215127 -0.03857743381121863
| 18> C 2.132765932795367 -0.7552436777872181 -0.9263083035802978
| 19> C 0.740700018074067 -0.7921071774588982 -0.8922386145552642
| 20> H -3.186304510949469 0.23160363876215412 1.3709218058453065
| 21> H -1.7257524682146688 -0.37873128584623666 2.1698722807805764
| 22> H -1.8547352296618485 1.3326598877885814 1.7156970485989633
| 23> H -3.171451101288961 -1.3798012845633374 -0.32130174792041305
| 24> H -1.8304310072765106 -1.6480616447995293 -1.4323490156567371
| 25> H -1.7039912082665603 -2.194545908556741 0.25207671602287457
| 26> H -1.6218358069854582 0.8060417950248062 -1.9944523844259407
| 27> H -3.0865561389357823 1.063398183576007 -1.0227034861405842
| 28> H -1.6285402655705088 2.028179844206013 -0.7071673863150243
| 29> H 0.22100793287438747 1.3991627726939393 1.6377479898981937
| 30> H 2.6633754430931793 1.4612063451933852 1.5795239611651342
| 31> H 3.923033112495227 0.07989678447229542 -0.06153038354849418
| 32> H 2.6663355025026423 -1.3636327984949939 -1.6507317537164592
| 33> H 0.2235258951549625 -1.4304790598125359 -1.5999715342859366
| 34> *
| 35>
| 36>                          ****END OF INPUT****

CARTESIAN COORDINATES (ANGSTROEM)
---------------------------------
  C     -2.095126    0.312321    1.404419
  C     -1.519500   -0.028566    0.021937
  C     -2.079421   -1.396601   -0.397768
  C     -1.991322    1.033730   -0.988784
  C      0.012213   -0.027634    0.029272
  C      0.738655    0.783698    0.910647
  C      2.131256    0.823895    0.879320
  C      2.838089    0.052617   -0.038577
  C      2.132766   -0.755244   -0.926308
  C      0.740700   -0.792107   -0.892239
  H     -3.186305    0.231604    1.370922
  H     -1.725752   -0.378731    2.169872
  H     -1.854735    1.332660    1.715697
  H     -3.171451   -1.379801   -0.321302
  H     -1.830431   -1.648062   -1.432349
  H     -1.703991   -2.194546    0.252077
  H     -1.621836    0.806042   -1.994452
  H     -3.086556    1.063398   -1.022703
  H     -1.628540    2.028180   -0.707167
  H      0.221008    1.399163    1.637748
  H      2.663375    1.461206    1.579524
  H      3.923033    0.079897   -0.061530
  H      2.666336   -1.363633   -1.650732
  H      0.223526   -1.430479   -1.599972

 Total Charge           Charge          ....    0
 Multiplicity           Mult            ....    1
 Number of Electrons    NEL             ....   74
 Basis Dimension        Dim             ....  394

ORBITAL ENERGIES
----------------

  NO   OCC          E(Eh)            E(eV)
   0   2.0000     -12.058226      -328.1210
   1   2.0000     -12.054848      -328.0291
   2   2.0000     -12.047215      -327.8214
   3   2.0000     -12.046994      -327.8154
   4   2.0000     -12.044021      -327.7345
   5   2.0000     -12.043044      -327.7079
   6   2.0000     -12.042510      -327.6934
   7   2.0000     -12.026320      -327.2528
   8   2.0000     -12.024421      -327.2011
   9   2.0000     -12.024055      -327.1912
  10   2.0000      -1.382537       -37.6207
  11   2.0000      -1.324610       -36.0445
  12   2.0000      -1.267327       -34.4857
  13   2.0000      -1.255183       -34.1553
  14   2.0000      -1.170291       -31.8452
  15   2.0000      -1.169899       -31.8346
  16   2.0000      -1.109152       -30.1816
  17   2.0000      -1.097541       -29.8656
  18   2.0000      -1.024370       -27.8745
  19   2.0000      -0.954222       -25.9657
  20   2.0000      -0.947060       -25.7708
  21   2.0000      -0.907816       -24.7029
  22   2.0000      -0.888121       -24.1670
  23   2.0000      -0.867630       -23.6094
  24   2.0000      -0.865702       -23.5570
  25   2.0000      -0.855797       -23.2874
  26   2.0000      -0.824172       -22.4269
  27   2.0000      -0.808525       -22.0011
  28   2.0000      -0.803483       -21.8639
  29   2.0000      -0.799382       -21.7523
  30   2.0000      -0.786154       -21.3923
  31   2.0000      -0.771857       -21.0033
  32   2.0000      -0.769207       -20.9312
  33   2.0000      -0.761617       -20.7246
  34   2.0000      -0.755486       -20.5578
  35   2.0000      -0.635159       -17.2836
  36   2.0000      -0.633076       -17.2269
  37   0.0000      -0.238947        -6.5021
  38   0.0000      -0.233314        -6.3488
  39   0.0000      -0.071240        -1.9385
  40   0.0000      -0.049514        -1.3473
  41   0.0000      -0.028770        -0.7829

MULLIKEN ATOMIC CHARGES
-----------------------
   0 C :   -0.431927
   1 C :    0.177231
   2 C :   -0.429681
   3 C :   -0.421627
   4 C :    0.145264
   5 C :   -0.255966
   6 C :   -0.166787
   7 C :   -0.183109
   8 C :   -0.167408
   9 C :   -0.258480
  10 H :    0.136187
  11 H :    0.134617
  12 H :    0.135397
  13 H :    0.135480
  14 H :    0.134995
  15 H :    0.133345
  16 H :    0.131728
  17 H :    0.130366
  18 H :    0.131378
  19 H :    0.157874
  20 H :    0.157509
  21 H :    0.158364
  22 H :    0.157516
  23 H :    0.157733
Sum of atomic charges:   -0.0000000

LOEWDIN ATOMIC CHARGES
----------------------
   0 C :   -0.258234
   1 C :   -0.309059
   2 C :   -0.257431
   3 C :   -0.251800
   4 C :   -0.100122
   5 C :   -0.118134
   6 C :   -0.152637
   7 C :   -0.160378
   8 C :   -0.152701
   9 C :   -0.117417
  10 H :    0.125936
  11 H :    0.125050
  12 H :    0.122545
  13 H :    0.125793
  14 H :    0.122361
  15 H :    0.124940
  16 H :    0.124149
  17 H :    0.124865
  18 H :    0.124124
  19 H :    0.154806
  20 H :    0.149951
  21 H :    0.148754
  22 H :    0.149969
  23 H :    0.154671

  Mayer bond orders larger than 0.100000
B(  0-C ,  1-C ) :   0.9582 B(  0-C , 10-H ) :   0.9789 B(  0-C , 11-H ) :   0.9799
B(  0-C , 12-H ) :   0.9691 B(  1-C ,  2-C ) :   0.9594 B(  1-C ,  3-C ) :   0.9541
B(  1-C ,  4-C ) :   0.9110 B(  2-C , 13-H ) :   0.9783 B(  2-C , 14-H ) :   0.9696
B(  2-C , 15-H ) :   0.9794 B(  3-C , 16-H ) :   0.9753 B(  3-C , 17-H ) :   0.9752
B(  3-C , 18-H ) :   0.9756 B(  4-C ,  5-C ) :   1.3394 B(  4-C ,  9-C ) :   1.3352
B(  5-C ,  6-C ) :   1.4419 B(  5-C , 19-H ) :   0.9744 B(  6-C ,  7-C ) :   1.4011
B(  6-C , 20-H ) :   0.9794 B(  7-C ,  8-C ) :   1.3976 B(  7-C , 21-H ) :   0.9777
B(  8-C ,  9-C ) :   1.4466 B(  8-C , 22-H ) :   0.9793 B(  9-C , 23-H ) :   0.9750

FINAL SINGLE POINT ENERGY      -389.516955083989

DIPOLE MOMENT
-------------

Method             : SCF
Type of density    : Electron Density
Multiplicity       :   1
Irrep              :   0
Energy             :  -389.5320943127885585 Eh
Relativity type    :
Basis              : AO
                                X                 Y                 Z
Electronic contribution:      9.282560764       0.023474154       0.032144315
Nuclear contribution   :     -9.557254206      -0.001388719      -0.056293380
                        -----------------------------------------
Total Dipole Moment    :     -0.274693442       0.022085435      -0.024149064
                        -----------------------------------------
Magnitude (a.u.)       :      0.276635917
Magnitude (Debye)      :      0.703152621

Rotational constants in cm-1:             0.085506             0.031658             0.027222
Rotational constants in MHz :          2563.406113           949.074411           816.094188

                             ****ORCA TERMINATED NORMALLY****
TOTAL RUN TIME: 0 days 0 hours 5 minutes 0 seconds 710 msec
