                         Program Version 6.0.0  -   RELEASE  -
|  1> ! wb97x-v def2-tzvp def2/J RIJCOSX DEFGRID2 scfconv7 GCP(DFT/TZ) printgap
|  2> %output
|  3>     printlevel normal
|  4> end
|  5> * xyz 0 1
|  6> C -1.3292943481081585 0.7757827345314311 -0.4269579798072679
|  7> C -1.5435324139233442 -0.6643861904709208 0.05115281390999492
|  8> C -0.12203898639645314 -1.2386599725918148 0.029307677274368064
|  9> C 0.7994785360392878 -0.07059915812467149 0.45203659621738307
| 10> C -0.08014875462660265 1.201127402650863 0.35538102455019854
| 11> O 1.997378566823451 0.0009949227830114782 -0.3516859488562229
| 12> H -2.189469064306707 1.4276200493761155 -0.24725050571457902
| 13> H -1.1241511870406786 0.7779811579966479 -1.5051365055285015
| 14> H -1.935489795055227 -0.6570125640289919 1.0759563591366061
| 15> H -2.2402451732670112 -1.2335684260428519 -0.5715913360719079
| 16> H 0.00668702286498182 -2.1247815849847846 0.6570607215093663
| 17> H 0.1378131707524048 -1.5197617735163609 -0.9993696633118148
| 18> H 1.1727034140032715 -0.2059816589708076 1.470865180532664
| 19> H -0.37197640563467826 1.5154360648453862 1.363855055087752
| 20> H 0.47253047251973734 2.0279932173272135 -0.10084985226471804
| 21> H 1.717656490128054 0.09477597916832996 -1.2725476484603142
| 22> *
| 23>
| 24>                          ****END OF INPUT****

CARTESIAN COORDINATES (ANGSTROEM)
---------------------------------
  C     -1.329294    0.775783   -0.426958
  C     -1.543532   -0.664386    0.051153
  C     -0.122039   -1.238660    0.029308
  C      0.799479   -0.070599    0.452037
  C     -0.080149    1.201127    0.355381
  O      1.997379    0.000995   -0.351686
  H     -2.189469    1.427620   -0.247251
  H     -1.124151    0.777981   -1.505137
  H     -1.935490   -0.657013    1.075956
  H     -2.240245   -1.233568   -0.571591
  H      0.006687   -2.124782    0.657061
  H      0.137813   -1.519762   -0.999370
  H      1.172703   -0.205982    1.470865
  H     -0.371976    1.515436    1.363855
  H      0.472530    2.027993   -0.100850
  H      1.717656    0.094776   -1.272548

 Total Charge           Charge          ....    0
 Multiplicity           Mult            ....    1
 Number of Electrons    NEL             ....   48
 Basis Dimension        Dim             ....  246

ORBITAL ENERGIES
----------------

  NO   OCC          E(Eh)            E(eV)
   0   2.0000     -21.664444      -589.5195
   1   2.0000     -12.093229      -329.0735
   2   2.0000     -12.044864      -327.7574
   3   2.0000     -12.043892      -327.7310
   4   2.0000     -12.041478      -327.6653
   5   2.0000     -12.039668      -327.6160
   6   2.0000      -1.662910       -45.2501
   7   2.0000      -1.347776       -36.6748
   8   2.0000      -1.217955       -33.1422
   9   2.0000      -1.216629       -33.1062
  10   2.0000      -1.094321       -29.7780
  11   2.0000      -1.052796       -28.6480
  12   2.0000      -0.990434       -26.9511
  13   2.0000      -0.954683       -25.9782
  14   2.0000      -0.919020       -25.0078
  15   2.0000      -0.908019       -24.7084
  16   2.0000      -0.882316       -24.0090
  17   2.0000      -0.848207       -23.0809
  18   2.0000      -0.816094       -22.2071
  19   2.0000      -0.792130       -21.5550
  20   2.0000      -0.788120       -21.4458
  21   2.0000      -0.779226       -21.2038
  22   2.0000      -0.767660       -20.8891
  23   2.0000      -0.754509       -20.5312
  24   0.0000      -0.146995        -3.9999
  25   0.0000      -0.060899        -1.6571
  26   0.0000      -0.047125        -1.2823
  27   0.0000      -0.045167        -1.2290
  28   0.0000      -0.019493        -0.5304

MULLIKEN ATOMIC CHARGES
-----------------------
   0 C :   -0.183145
   1 C :   -0.165971
   2 C :   -0.217251
   3 C :    0.084323
   4 C :   -0.226424
   5 O :   -0.445118
   6 H :    0.102031
   7 H :    0.084245
   8 H :    0.090040
   9 H :    0.100254
  10 H :    0.106049
  11 H :    0.090149
  12 H :    0.082960
  13 H :    0.094627
  14 H :    0.114285
  15 H :    0.288944
Sum of atomic charges:   -0.0000000

LOEWDIN ATOMIC CHARGES
----------------------
   0 C :   -0.258096
   1 C :   -0.255449
   2 C :   -0.237957
   3 C :   -0.309914
   4 C :   -0.239893
   5 O :   -0.043689
   6 H :    0.127360
   7 H :    0.129674
   8 H :    0.132727
   9 H :    0.127053
  10 H :    0.129205
  11 H :    0.134409
  12 H :    0.135736
  13 H :    0.134621
  14 H :    0.131525
  15 H :    0.162689

  Mayer bond orders larger than 0.100000
B(  0-C ,  1-C ) :   0.9715 B(  0-C ,  4-C ) :   0.9798 B(  0-C ,  6-H ) :   0.9707
B(  0-C ,  7-H ) :   0.9773 B(  1-C ,  2-C ) :   0.9783 B(  1-C ,  8-H ) :   0.9707
B(  1-C ,  9-H ) :   0.9722 B(  2-C ,  3-C ) :   0.9872 B(  2-C , 10-H ) :   0.9698
B(  2-C , 11-H ) :   0.9759 B(  3-C ,  4-C ) :   0.9893 B(  3-C ,  5-O ) :   1.0108
B(  3-C , 12-H ) :   0.9636 B(  4-C , 13-H ) :   0.9704 B(  4-C , 14-H ) :   0.9767
B(  5-O , 15-H ) :   0.9037

FINAL SINGLE POINT ENERGY      -271.788289429206

DIPOLE MOMENT
-------------

Method             : SCF
Type of density    : Electron Density
Multiplicity       :   1
Irrep              :   0
Energy             :  -271.7992128048058476 Eh
Relativity type    :
Basis              : AO
                                X                 Y                 Z
Electronic contribution:      3.368623146      -0.056670154      -0.078810278
Nuclear contribution   :     -4.080951631       0.079057990      -0.102173111
                        -----------------------------------------
Total Dipole Moment    :     -0.712328485       0.022387836      -0.180983389
                        -----------------------------------------
Magnitude (a.u.)       :      0.735301348
Magnitude (Debye)      :      1.868987496

Rotational constants in cm-1:             0.197112             0.105066             0.081176
Rotational constants in MHz :          5909.255622          3149.805239          2433.600920

                             ****ORCA TERMINATED NORMALLY****
TOTAL RUN TIME: 0 days 0 hours 1 minutes 27 seconds 23 msec
