                         Program Version 6.0.0  -   RELEASE  -
|  1> ! wb97x-v def2-tzvp def2/J RIJCOSX DEFGRID2 scfconv7 GCP(DFT/TZ) printgap
|  2> %output
|  3>     printlevel normal
|  4> end
|  5> %cpcm
|  6>     smd true
|  7>     smdsolvent "water"
|  8> end
|  9> * xyz 0 1
| 10> C -1.3292943481081585 0.7757827345314311 -0.4269579798072679
| 11> C -1.5435324139233442 -0.6643861904709208 0.05115281390999492
| 12> C -0.12203898639645314 -1.2386599725918148 0.029307677274368064
| 13> C 0.7994785360392878 -0.07059915812467149 0.45203659621738307
| 14> C -0.08014875462660265 1.201127402650863 0.35538102455019854
| 15> O 1.997378566823451 0.0009949227830114782 -0.3516859488562229
| 16> H -2.189469064306707 1.4276200493761155 -0.24725050571457902
| 17> H -1.1241511870406786 0.7779811579966479 -1.5051365055285015
| 18> H -1.935489795055227 -0.6570125640289919 1.0759563591366061
| 19> H -2.2402451732670112 -1.2335684260428519 -0.5715913360719079
| 20> H 0.00668702286498182 -2.1247815849847846 0.6570607215093663
| 21> H 0.1378131707524048 -1.5197617735163609 -0.9993696633118148
| 22> H 1.1727034140032715 -0.2059816589708076 1.470865180532664
| 23> H -0.37197640563467826 1.5154360648453862 1.363855055087752
| 24> H 0.47253047251973734 2.0279932173272135 -0.10084985226471804
| 25> H 1.717656490128054 0.09477597916832996 -1.2725476484603142
| 26> *
| 27>
| 28>                          ****END OF INPUT****

CARTESIAN COORDINATES (ANGSTROEM)
---------------------------------
  C     -1.329294    0.775783   -0.426958
  C     -1.543532   -0.664386    0.051153
  C     -0.122039   -1.238660    0.029308
  C      0.799479   -0.070599    0.452037
  C     -0.080149    1.201127    0.355381
  O      1.997379    0.000995   -0.351686
  H     -2.189469    1.427620   -0.247251
  H     -1.124151    0.777981   -1.505137
  H     -1.935490   -0.657013    1.075956
  H     -2.240245   -1.233568   -0.571591
  H      0.006687   -2.124782    0.657061
  H      0.137813   -1.519762   -0.999370
  H      1.172703   -0.205982    1.470865
  H     -0.371976    1.515436    1.363855
  H      0.472530    2.027993   -0.100850
  H      1.717656    0.094776   -1.272548

 Total Charge           Charge          ....    0
 Multiplicity           Mult            ....    1
 Number of Electrons    NEL             ....   48
 Basis Dimension        Dim             ....  246

ORBITAL ENERGIES
----------------

  NO   OCC          E(Eh)            E(eV)
   0   2.0000     -21.668893      -589.6405
   1   2.0000     -12.087710      -328.9233
   2   2.0000     -12.031787      -327.4016
   3   2.0000     -12.030991      -327.3799
   4   2.0000     -12.030040      -327.3540
   5   2.0000     -12.029334      -327.3348
   6   2.0000      -1.667731       -45.3813
   7   2.0000      -1.336970       -36.3808
   8   2.0000      -1.210634       -32.9430
   9   2.0000      -1.205623       -32.8067
  10   2.0000      -1.091866       -29.7112
  11   2.0000      -1.041283       -28.3348
  12   2.0000      -0.991544       -26.9813
  13   2.0000      -0.953175       -25.9372
  14   2.0000      -0.919461       -25.0198
  15   2.0000      -0.901602       -24.5338
  16   2.0000      -0.873229       -23.7618
  17   2.0000      -0.835948       -22.7473
  18   2.0000      -0.807464       -21.9722
  19   2.0000      -0.780529       -21.2393
  20   2.0000      -0.776097       -21.1187
  21   2.0000      -0.772346       -21.0166
  22   2.0000      -0.757637       -20.6163
  23   2.0000      -0.741069       -20.1655
  24   0.0000      -0.142744        -3.8843
  25   0.0000      -0.038359        -1.0438
  26   0.0000      -0.037636        -1.0241
  27   0.0000      -0.036007        -0.9798
  28   0.0000      -0.005333        -0.1451

MULLIKEN ATOMIC CHARGES
-----------------------
   0 C :   -0.204139
   1 C :   -0.198478
   2 C :   -0.239902
   3 C :    0.099503
   4 C :   -0.234473
   5 O :   -0.565647
   6 H :    0.114101
   7 H :    0.100879
   8 H :    0.102279
   9 H :    0.113463
  10 H :    0.118507
  11 H :    0.110128
  12 H :    0.104846
  13 H :    0.110553
  14 H :    0.113969
  15 H :    0.354410
Sum of atomic charges:   -0.0000000

LOEWDIN ATOMIC CHARGES
----------------------
   0 C :   -0.258390
   1 C :   -0.256649
   2 C :   -0.239511
   3 C :   -0.310789
   4 C :   -0.239915
   5 O :   -0.089210
   6 H :    0.128882
   7 H :    0.134787
   8 H :    0.135198
   9 H :    0.129412
  10 H :    0.130733
  11 H :    0.140476
  12 H :    0.138572
  13 H :    0.138584
  14 H :    0.131806
  15 H :    0.186016

  Mayer bond orders larger than 0.100000
B(  0-C ,  1-C ) :   0.9808 B(  0-C ,  4-C ) :   0.9881 B(  0-C ,  6-H ) :   0.9682
B(  0-C ,  7-H ) :   0.9722 B(  1-C ,  2-C ) :   0.9876 B(  1-C ,  8-H ) :   0.9702
B(  1-C ,  9-H ) :   0.9688 B(  2-C ,  3-C ) :   0.9937 B(  2-C , 10-H ) :   0.9634
B(  2-C , 11-H ) :   0.9705 B(  3-C ,  4-C ) :   0.9994 B(  3-C ,  5-O ) :   0.9567
B(  3-C , 12-H ) :   0.9649 B(  4-C , 13-H ) :   0.9665 B(  4-C , 14-H ) :   0.9692
B(  5-O , 15-H ) :   0.8690

FINAL SINGLE POINT ENERGY      -271.797035874555

DIPOLE MOMENT
-------------

Method             : SCF
Type of density    : Electron Density
Multiplicity       :   1
Irrep              :   0
Energy             :  -271.8079592501551360 Eh
Relativity type    :
Basis              : AO
                                X                 Y                 Z
Electronic contribution:      3.125720202      -0.046952046      -0.188254014
Nuclear contribution   :     -4.080951631       0.079057990      -0.102173111
                        -----------------------------------------
Total Dipole Moment    :     -0.955231429       0.032105944      -0.290427125
                        -----------------------------------------
Magnitude (a.u.)       :      0.998922314
Magnitude (Debye)      :      2.539058740

Rotational constants in cm-1:             0.197112             0.105066             0.081176
Rotational constants in MHz :          5909.255622          3149.805239          2433.600920

                             ****ORCA TERMINATED NORMALLY****
TOTAL RUN TIME: 0 days 0 hours 1 minutes 48 seconds 940 msec
