                         Program Version 6.0.0  -   RELEASE  -
|  1> ! pbe def2-sv(p) def2/J RI DEFGRID1 loosescf d4 GCP(DFT/SV(P)) printgap
|  2> %output
|  3>     printlevel normal
|  4> end
|  5> * xyz 0 1
|  6> C -2.8195627789 1.0439877285 -0.0007497962
|  7> O -2.2173223048 -0.2363259241 0.0006234001
|  8> C -0.8559529153 -0.3188242881 0.0002761461
|  9> C -0.3258646995 -1.6110110887 0.0001107159
| 10> C 1.0403088306 -1.792725601 -0.0002323081
| 11> C 1.9013400753 -0.7072359924 -0.0004241782
| 12> C 1.3758642974 0.5769431754 7.7412e-06
| 13> C -0.00291037 0.7740601201 0.0002092162
| 14> O 2.1609029882 1.6879228949 0.000211035
| 15> H -2.5440901291 1.6085176153 -0.8951865332
| 16> H -2.5447512137 1.6099294064 0.8931084355
| 17> H -3.8906177123 0.855796338 -0.0011297069
| 18> H -1.00701819 -2.4460541131 0.0004654898
| 19> H 1.4450399828 -2.7927465685 -0.0005019212
| 20> H 2.9697455992 -0.8599652862 -0.0008392178
| 21> H -0.3633330139 1.7893154961 0.0004385836
| 22> H 3.0979976816 1.4410545632 -3.81105e-05
| 23> *
| 24>
| 25>                          ****END OF INPUT****

CARTESIAN COORDINATES (ANGSTROEM)
---------------------------------
  C     -2.819563    1.043988   -0.000750
  O     -2.217322   -0.236326    0.000623
  C     -0.855953   -0.318824    0.000276
  C     -0.325865   -1.611011    0.000111
  C      1.040309   -1.792726   -0.000232
  C      1.901340   -0.707236   -0.000424
  C      1.375864    0.576943    0.000008
  C     -0.002910    0.774060    0.000209
  O      2.160903    1.687923    0.000211
  H     -2.544090    1.608518   -0.895187
  H     -2.544751    1.609929    0.893108
  H     -3.890618    0.855796   -0.001130
  H     -1.007018   -2.446054    0.000465
  H      1.445040   -2.792747   -0.000502
  H      2.969746   -0.859965   -0.000839
  H     -0.363333    1.789315    0.000439
  H      3.097998    1.441055   -0.000038

 Total Charge           Charge          ....    0
 Multiplicity           Mult            ....    1
 Number of Electrons    NEL             ....   66
 Basis Dimension        Dim             ....  142

ORBITAL ENERGIES
----------------

  NO   OCC          E(Eh)            E(eV)
   0   2.0000     -18.783158      -511.1157
   1   2.0000     -18.780447      -511.0419
   2   2.0000      -9.950866      -270.7768
   3   2.0000      -9.947663      -270.6897
   4   2.0000      -9.937892      -270.4238
   5   2.0000      -9.891239      -269.1543
   6   2.0000      -9.882173      -268.9076
   7   2.0000      -9.881507      -268.8895
   8   2.0000      -9.876355      -268.7493
   9   2.0000      -0.964588       -26.2478
  10   2.0000      -0.961239       -26.1566
  11   2.0000      -0.766089       -20.8464
  12   2.0000      -0.678036       -18.4503
  13   2.0000      -0.668212       -18.1830
  14   2.0000      -0.620831       -16.8937
  15   2.0000      -0.558585       -15.1999
  16   2.0000      -0.538531       -14.6542
  17   2.0000      -0.498270       -13.5586
  18   2.0000      -0.444093       -12.0844
  19   2.0000      -0.435924       -11.8621
  20   2.0000      -0.431507       -11.7419
  21   2.0000      -0.417840       -11.3700
  22   2.0000      -0.392543       -10.6816
  23   2.0000      -0.368996       -10.0409
  24   2.0000      -0.361607        -9.8398
  25   2.0000      -0.338708        -9.2167
  26   2.0000      -0.329780        -8.9738
  27   2.0000      -0.314475        -8.5573
  28   2.0000      -0.298270        -8.1163
  29   2.0000      -0.283057        -7.7024
  30   2.0000      -0.264393        -7.1945
  31   2.0000      -0.204896        -5.5755
  32   2.0000      -0.183019        -4.9802
  33   0.0000      -0.021994        -0.5985
  34   0.0000      -0.009758        -0.2655
  35   0.0000       0.024939         0.6786
  36   0.0000       0.048345         1.3155
  37   0.0000       0.058530         1.5927

MULLIKEN ATOMIC CHARGES
-----------------------
   0 C :   -0.114754
   1 O :   -0.270115
   2 C :    0.276964
   3 C :   -0.110190
   4 C :   -0.063557
   5 C :   -0.161613
   6 C :    0.247099
   7 C :   -0.278271
   8 O :   -0.336685
   9 H :    0.111732
  10 H :    0.111742
  11 H :    0.125112
  12 H :    0.038893
  13 H :    0.052744
  14 H :    0.020969
  15 H :    0.032777
  16 H :    0.317154
Sum of atomic charges:   -0.0000000

LOEWDIN ATOMIC CHARGES
----------------------
   0 C :   -0.202163
   1 O :   -0.090942
   2 C :    0.039182
   3 C :   -0.168304
   4 C :   -0.110433
   5 C :   -0.202629
   6 C :    0.030091
   7 C :   -0.203182
   8 O :   -0.236405
   9 H :    0.110327
  10 H :    0.110314
  11 H :    0.122101
  12 H :    0.128269
  13 H :    0.124765
  14 H :    0.118157
  15 H :    0.132636
  16 H :    0.298215

  Mayer bond orders larger than 0.100000
B(  0-C ,  1-O ) :   0.9892 B(  0-C ,  9-H ) :   0.9421 B(  0-C , 10-H ) :   0.9421
B(  0-C , 11-H ) :   0.9590 B(  1-O ,  2-C ) :   1.1382 B(  2-C ,  3-C ) :   1.3390
B(  2-C ,  7-C ) :   1.2788 B(  3-C ,  4-C ) :   1.3890 B(  3-C , 12-H ) :   0.9662
B(  4-C ,  5-C ) :   1.3357 B(  4-C , 13-H ) :   0.9608 B(  5-C ,  6-C ) :   1.3326
B(  5-C , 14-H ) :   0.9602 B(  6-C ,  7-C ) :   1.3174 B(  6-C ,  8-O ) :   1.1878
B(  7-C , 15-H ) :   0.9648 B(  8-O , 16-H ) :   0.8425

Dispersion correction           -0.016515875
FINAL SINGLE POINT ENERGY      -421.093806256607

DIPOLE MOMENT
-------------

Method             : SCF
Type of density    : Electron Density
Multiplicity       :   1
Irrep              :   0
Energy             :  -421.1526177698398214 Eh
Relativity type    :
Basis              : AO
                                X                 Y                 Z
Electronic contribution:      2.942037573      -0.864637914       0.002693340
Nuclear contribution   :     -2.662450371       1.152793665      -0.003442902
                        -----------------------------------------
Total Dipole Moment    :      0.279587202       0.288155750      -0.000749563
                        -----------------------------------------
Magnitude (a.u.)       :      0.401501310
Magnitude (Debye)      :      1.020535227

Rotational constants in cm-1:             0.096168             0.043243             0.030001
Rotational constants in MHz :          2883.034387          1296.405321           899.408500

                             ****ORCA TERMINATED NORMALLY****
TOTAL RUN TIME: 0 days 0 hours 0 minutes 8 seconds 120 msec
