                         Program Version 6.0.0  -   RELEASE  -
|  1> ! pbe def2-sv(p) def2/J RI DEFGRID1 loosescf d4 GCP(DFT/SV(P)) printgap
|  2> %output
|  3>     printlevel normal
|  4> end
|  5> * xyz 0 1
|  6> C -2.5241871847 -0.7519885066 -0.436282484
|  7> C -1.1614427702 -0.3693533734 0.1434107314
|  8> H -1.2434398977 -0.3751705295 1.2430139001
|  9> C -0.7069144272 1.0209406129 -0.3325495827
| 10> H -0.6775198981 1.0294726367 -1.427748645
| 11> C 0.7070208386 1.3205564582 0.197848593
| 12> H 0.6654397902 1.3914662789 1.3006893112
| 13> C 1.663845129 0.179792776 -0.1820693896
| 14> H 1.7625561848 0.1552688598 -1.2724147078
| 15> C 1.0596686443 -1.160722643 0.3055157373
| 16> H 0.9844799847 -1.148108914 1.4071955594
| 17> O -0.2211017673 -1.3458262175 -0.2602249608
| 18> O 1.8416939298 -2.2495956508 -0.0032825771
| 19> O 2.9650310925 0.3652167024 0.2977772618
| 20> O 1.1962891872 2.527350574 -0.3305322517
| 21> O -1.6016009287 2.040176017 0.0285672239
| 22> O -3.1809481419 -1.5983445888 0.4787679211
| 23> H -2.3516618669 -1.2554315863 -1.3931050895
| 24> H -3.1043873266 0.165298347 -0.5991369364
| 25> H 1.8754946453 -2.3717875484 -0.9649079404
| 26> H 2.9621602771 0.4440790107 1.262664181
| 27> H 0.472355966 3.1739608542 -0.3427537048
| 28> H -1.7546725779 2.0238818947 0.9855717833
| 29> H -3.9905621775 -1.9402627325 0.0745972288
| 30> *
| 31>
| 32>                          ****END OF INPUT****

CARTESIAN COORDINATES (ANGSTROEM)
---------------------------------
  C     -2.524187   -0.751989   -0.436282
  C     -1.161443   -0.369353    0.143411
  H     -1.243440   -0.375171    1.243014
  C     -0.706914    1.020941   -0.332550
  H     -0.677520    1.029473   -1.427749
  C      0.707021    1.320556    0.197849
  H      0.665440    1.391466    1.300689
  C      1.663845    0.179793   -0.182069
  H      1.762556    0.155269   -1.272415
  C      1.059669   -1.160723    0.305516
  H      0.984480   -1.148109    1.407196
  O     -0.221102   -1.345826   -0.260225
  O      1.841694   -2.249596   -0.003283
  O      2.965031    0.365217    0.297777
  O      1.196289    2.527351   -0.330532
  O     -1.601601    2.040176    0.028567
  O     -3.180948   -1.598345    0.478768
  H     -2.351662   -1.255432   -1.393105
  H     -3.104387    0.165298   -0.599137
  H      1.875495   -2.371788   -0.964908
  H      2.962160    0.444079    1.262664
  H      0.472356    3.173961   -0.342754
  H     -1.754673    2.023882    0.985572
  H     -3.990562   -1.940263    0.074597

 Total Charge           Charge          ....    0
 Multiplicity           Mult            ....    1
 Number of Electrons    NEL             ....   96
 Basis Dimension        Dim             ....  192

ORBITAL ENERGIES
----------------

  NO   OCC          E(Eh)            E(eV)
   0   2.0000     -18.775723      -510.9134
   1   2.0000     -18.772072      -510.8140
   2   2.0000     -18.757158      -510.4082
   3   2.0000     -18.752247      -510.2746
   4   2.0000     -18.748078      -510.1611
   5   2.0000     -18.747525      -510.1461
   6   2.0000      -9.985906      -271.7303
   7   2.0000      -9.951860      -270.8039
   8   2.0000      -9.951489      -270.7938
   9   2.0000      -9.947102      -270.6744
  10   2.0000      -9.940762      -270.5019
  11   2.0000      -9.936243      -270.3789
  12   2.0000      -0.983830       -26.7714
  13   2.0000      -0.957207       -26.0469
  14   2.0000      -0.934687       -25.4341
  15   2.0000      -0.927317       -25.2336
  16   2.0000      -0.917567       -24.9683
  17   2.0000      -0.912162       -24.8212
  18   2.0000      -0.708019       -19.2662
  19   2.0000      -0.693338       -18.8667
  20   2.0000      -0.618460       -16.8292
  21   2.0000      -0.590320       -16.0634
  22   2.0000      -0.558969       -15.2103
  23   2.0000      -0.553646       -15.0655
  24   2.0000      -0.503600       -13.7036
  25   2.0000      -0.489212       -13.3121
  26   2.0000      -0.479054       -13.0357
  27   2.0000      -0.463005       -12.5990
  28   2.0000      -0.460867       -12.5408
  29   2.0000      -0.429705       -11.6929
  30   2.0000      -0.413557       -11.2535
  31   2.0000      -0.404438       -11.0053
  32   2.0000      -0.389071       -10.5872
  33   2.0000      -0.385255       -10.4833
  34   2.0000      -0.361128        -9.8268
  35   2.0000      -0.353709        -9.6249
  36   2.0000      -0.324341        -8.8258
  37   2.0000      -0.309768        -8.4292
  38   2.0000      -0.301003        -8.1907
  39   2.0000      -0.298669        -8.1272
  40   2.0000      -0.287050        -7.8110
  41   2.0000      -0.280854        -7.6424
  42   2.0000      -0.262132        -7.1330
  43   2.0000      -0.244551        -6.6546
  44   2.0000      -0.233144        -6.3442
  45   2.0000      -0.222287        -6.0487
  46   2.0000      -0.218012        -5.9324
  47   2.0000      -0.198513        -5.4018
  48   0.0000       0.006223         0.1693
  49   0.0000       0.023091         0.6283
  50   0.0000       0.027146         0.7387
  51   0.0000       0.032770         0.8917
  52   0.0000       0.046859         1.2751

MULLIKEN ATOMIC CHARGES
-----------------------
   0 C :    0.076954
   1 C :    0.008834
   2 H :    0.052954
   3 C :    0.003984
   4 H :    0.073580
   5 C :    0.068619
   6 H :    0.016789
   7 C :    0.067852
   8 H :    0.054503
   9 C :    0.179837
  10 H :    0.036000
  11 O :   -0.296576
  12 O :   -0.363742
  13 O :   -0.396183
  14 O :   -0.399148
  15 O :   -0.410481
  16 O :   -0.434974
  17 H :    0.077975
  18 H :    0.077960
  19 H :    0.303591
  20 H :    0.296302
  21 H :    0.299490
  22 H :    0.304801
  23 H :    0.301079
Sum of atomic charges:    0.0000000

LOEWDIN ATOMIC CHARGES
----------------------
   0 C :   -0.126209
   1 C :   -0.066011
   2 H :    0.103551
   3 C :   -0.086936
   4 H :    0.121582
   5 C :   -0.083999
   6 H :    0.085701
   7 C :   -0.090599
   8 H :    0.118006
   9 C :   -0.006846
  10 H :    0.090480
  11 O :   -0.150821
  12 O :   -0.280204
  13 O :   -0.299951
  14 O :   -0.317594
  15 O :   -0.304076
  16 O :   -0.343552
  17 H :    0.105965
  18 H :    0.100092
  19 H :    0.290217
  20 H :    0.284826
  21 H :    0.280856
  22 H :    0.288237
  23 H :    0.287285

  Mayer bond orders larger than 0.100000
B(  0-C ,  1-C ) :   1.0517 B(  0-C , 16-O ) :   1.1022 B(  0-C , 17-H ) :   0.9017
B(  0-C , 18-H ) :   0.9131 B(  1-C ,  2-H ) :   0.8750 B(  1-C ,  3-C ) :   0.9813
B(  1-C , 11-O ) :   1.0076 B(  3-C ,  4-H ) :   0.8655 B(  3-C ,  5-C ) :   1.0097
B(  3-C , 15-O ) :   1.0032 B(  5-C ,  6-H ) :   0.8619 B(  5-C ,  7-C ) :   0.9886
B(  5-C , 14-O ) :   1.1192 B(  7-C ,  8-H ) :   0.8581 B(  7-C ,  9-C ) :   0.9534
B(  7-C , 13-O ) :   1.0655 B(  9-C , 10-H ) :   0.8752 B(  9-C , 11-O ) :   0.9932
B(  9-C , 12-O ) :   1.1712 B( 12-O , 19-H ) :   0.8430 B( 13-O , 20-H ) :   0.8489
B( 14-O , 21-H ) :   0.8326 B( 15-O , 22-H ) :   0.8434 B( 16-O , 23-H ) :   0.8506

Dispersion correction           -0.023517411
FINAL SINGLE POINT ENERGY      -685.689789431311

DIPOLE MOMENT
-------------

Method             : SCF
Type of density    : Electron Density
Multiplicity       :   1
Irrep              :   0
Energy             :  -685.8185341222815623 Eh
Relativity type    :
Basis              : AO
                                X                 Y                 Z
Electronic contribution:      2.892256188      -0.918451765      -0.104647757
Nuclear contribution   :     -4.112915387       1.208874224       0.259871202
                        -----------------------------------------
Total Dipole Moment    :     -1.220659199       0.290422460       0.155223446
                        -----------------------------------------
Magnitude (a.u.)       :      1.264297593
Magnitude (Debye)      :      3.213589092

Rotational constants in cm-1:             0.039695             0.025203             0.016246
Rotational constants in MHz :          1190.034482           755.564605           487.035862

                             ****ORCA TERMINATED NORMALLY****
TOTAL RUN TIME: 0 days 0 hours 0 minutes 11 seconds 509 msec
