                         Program Version 6.0.0  -   RELEASE  -
|  1> ! pbe def2-sv(p) def2/J RI DEFGRID1 loosescf d4 GCP(DFT/SV(P)) printgap
|  2> %output
|  3>     printlevel normal
|  4> end
|  5> * xyz 0 1
|  6> C -2.3720931978 -1.1422207946 -0.4207258499
|  7> C -1.0805274918 -0.6285713111 0.224021785
|  8> H -1.1777607113 -0.6685786185 1.3212022861
|  9> C -0.8019904806 0.8392952236 -0.16319618
| 10> H -0.9243355947 0.964623029 -1.2504953859
| 11> C 0.6349570435 1.2495380163 0.1896846889
| 12> H 0.6811563912 1.3915928714 1.282402763
| 13> C 1.6517755966 0.1733815474 -0.2300231011
| 14> H 1.6735648708 0.1237784758 -1.3248089155
| 15> C 1.2110279711 -1.1936523089 0.3234703245
| 16> H 1.1606394523 -1.14644063 1.4254427347
| 17> O -0.0612233976 -1.5079082798 -0.2034668404
| 18> O 2.0811511385 -2.2173593973 0.0255820059
| 19> O 2.95319516 0.5284325268 0.1600387074
| 20> O 0.9144188994 2.4641246775 -0.4611236311
| 21> O -1.6636272589 1.7024566844 0.532725813
| 22> O -3.4557692628 -0.3615090472 0.0237860941
| 23> H -2.4918920075 -2.1938644087 -0.1373653387
| 24> H -2.2584831357 -1.0803864362 -1.5100076023
| 25> H 2.0824190177 -2.3851149896 -0.9299611888
| 26> H 3.0732571469 0.3761296376 1.1085764781
| 27> H 1.8608752848 2.6536987482 -0.3599304776
| 28> H -2.576188609 1.3853906541 0.4116261709
| 29> H -4.2775069987 -0.7076123728 -0.3527480129
| 30> *
| 31>
| 32>                          ****END OF INPUT****

CARTESIAN COORDINATES (ANGSTROEM)
---------------------------------
  C     -2.372093   -1.142221   -0.420726
  C     -1.080527   -0.628571    0.224022
  H     -1.177761   -0.668579    1.321202
  C     -0.801990    0.839295   -0.163196
  H     -0.924336    0.964623   -1.250495
  C      0.634957    1.249538    0.189685
  H      0.681156    1.391593    1.282403
  C      1.651776    0.173382   -0.230023
  H      1.673565    0.123778   -1.324809
  C      1.211028   -1.193652    0.323470
  H      1.160639   -1.146441    1.425443
  O     -0.061223   -1.507908   -0.203467
  O      2.081151   -2.217359    0.025582
  O      2.953195    0.528433    0.160039
  O      0.914419    2.464125   -0.461124
  O     -1.663627    1.702457    0.532726
  O     -3.455769   -0.361509    0.023786
  H     -2.491892   -2.193864   -0.137365
  H     -2.258483   -1.080386   -1.510008
  H      2.082419   -2.385115   -0.929961
  H      3.073257    0.376130    1.108576
  H      1.860875    2.653699   -0.359930
  H     -2.576189    1.385391    0.411626
  H     -4.277507   -0.707612   -0.352748

 Total Charge           Charge          ....    0
 Multiplicity           Mult            ....    1
 Number of Electrons    NEL             ....   96
 Basis Dimension        Dim             ....  192

ORBITAL ENERGIES
----------------

  NO   OCC          E(Eh)            E(eV)
   0   2.0000     -18.780810      -511.0518
   1   2.0000     -18.776717      -510.9405
   2   2.0000     -18.762869      -510.5636
   3   2.0000     -18.760931      -510.5109
   4   2.0000     -18.737946      -509.8854
   5   2.0000     -18.731062      -509.6981
   6   2.0000      -9.991667      -271.8871
   7   2.0000      -9.948574      -270.7145
   8   2.0000      -9.948114      -270.7020
   9   2.0000      -9.939579      -270.4697
  10   2.0000      -9.935505      -270.3588
  11   2.0000      -9.935170      -270.3497
  12   2.0000      -0.987776       -26.8787
  13   2.0000      -0.953774       -25.9535
  14   2.0000      -0.941770       -25.6269
  15   2.0000      -0.926213       -25.2035
  16   2.0000      -0.914872       -24.8949
  17   2.0000      -0.902873       -24.5684
  18   2.0000      -0.701030       -19.0760
  19   2.0000      -0.693512       -18.8714
  20   2.0000      -0.622539       -16.9402
  21   2.0000      -0.584844       -15.9144
  22   2.0000      -0.560732       -15.2583
  23   2.0000      -0.532375       -14.4867
  24   2.0000      -0.511049       -13.9063
  25   2.0000      -0.492544       -13.4028
  26   2.0000      -0.478323       -13.0158
  27   2.0000      -0.457029       -12.4364
  28   2.0000      -0.449314       -12.2265
  29   2.0000      -0.436605       -11.8806
  30   2.0000      -0.425211       -11.5706
  31   2.0000      -0.406758       -11.0684
  32   2.0000      -0.393685       -10.7127
  33   2.0000      -0.367400        -9.9975
  34   2.0000      -0.350397        -9.5348
  35   2.0000      -0.347036        -9.4433
  36   2.0000      -0.327305        -8.9064
  37   2.0000      -0.321637        -8.7522
  38   2.0000      -0.313378        -8.5274
  39   2.0000      -0.296133        -8.0582
  40   2.0000      -0.288609        -7.8535
  41   2.0000      -0.267836        -7.2882
  42   2.0000      -0.249469        -6.7884
  43   2.0000      -0.246013        -6.6944
  44   2.0000      -0.235572        -6.4102
  45   2.0000      -0.228293        -6.2122
  46   2.0000      -0.211671        -5.7599
  47   2.0000      -0.192872        -5.2483
  48   0.0000       0.002687         0.0731
  49   0.0000       0.019790         0.5385
  50   0.0000       0.030080         0.8185
  51   0.0000       0.042176         1.1477
  52   0.0000       0.060728         1.6525

MULLIKEN ATOMIC CHARGES
-----------------------
   0 C :    0.068404
   1 C :   -0.014405
   2 H :    0.064803
   3 C :    0.064510
   4 H :    0.049342
   5 C :    0.091558
   6 H :    0.038562
   7 C :    0.026876
   8 H :    0.054420
   9 C :    0.174509
  10 H :    0.040014
  11 O :   -0.306265
  12 O :   -0.364520
  13 O :   -0.410822
  14 O :   -0.406768
  15 O :   -0.419088
  16 O :   -0.443180
  17 H :    0.091446
  18 H :    0.075926
  19 H :    0.305799
  20 H :    0.300717
  21 H :    0.298741
  22 H :    0.302179
  23 H :    0.317242
Sum of atomic charges:   -0.0000000

LOEWDIN ATOMIC CHARGES
----------------------
   0 C :   -0.121743
   1 C :   -0.069098
   2 H :    0.106721
   3 C :   -0.063574
   4 H :    0.104177
   5 C :   -0.071552
   6 H :    0.098569
   7 C :   -0.105219
   8 H :    0.114579
   9 C :   -0.006778
  10 H :    0.092323
  11 O :   -0.152586
  12 O :   -0.283760
  13 O :   -0.308918
  14 O :   -0.317392
  15 O :   -0.322188
  16 O :   -0.330385
  17 H :    0.106221
  18 H :    0.101344
  19 H :    0.291401
  20 H :    0.286903
  21 H :    0.281176
  22 H :    0.272923
  23 H :    0.296856

  Mayer bond orders larger than 0.100000
B(  0-C ,  1-C ) :   1.0648 B(  0-C , 16-O ) :   1.0551 B(  0-C , 17-H ) :   0.9194
B(  0-C , 18-H ) :   0.9077 B(  1-C ,  2-H ) :   0.8724 B(  1-C ,  3-C ) :   1.0020
B(  1-C , 11-O ) :   0.9890 B(  3-C ,  4-H ) :   0.8704 B(  3-C ,  5-C ) :   1.0086
B(  3-C , 15-O ) :   1.1012 B(  5-C ,  6-H ) :   0.8683 B(  5-C ,  7-C ) :   0.9901
B(  5-C , 14-O ) :   1.1033 B(  7-C ,  8-H ) :   0.8552 B(  7-C ,  9-C ) :   0.9728
B(  7-C , 13-O ) :   1.0411 B(  9-C , 10-H ) :   0.8758 B(  9-C , 11-O ) :   0.9958
B(  9-C , 12-O ) :   1.1682 B( 12-O , 19-H ) :   0.8422 B( 13-O , 20-H ) :   0.8457
B( 14-O , 21-H ) :   0.8354 B( 15-O , 22-H ) :   0.8111 B( 16-O , 23-H ) :   0.8411

Dispersion correction           -0.023745980
FINAL SINGLE POINT ENERGY      -685.696252915647

DIPOLE MOMENT
-------------

Method             : SCF
Type of density    : Electron Density
Multiplicity       :   1
Irrep              :   0
Energy             :  -685.8266463482143536 Eh
Relativity type    :
Basis              : AO
                                X                 Y                 Z
Electronic contribution:      2.314481360       0.267483911       0.055307106
Nuclear contribution   :     -2.966611406      -1.198211610      -0.295375388
                        -----------------------------------------
Total Dipole Moment    :     -0.652130046      -0.930727699      -0.240068282
                        -----------------------------------------
Magnitude (a.u.)       :      1.161533653
Magnitude (Debye)      :      2.952383915

Rotational constants in cm-1:             0.043855             0.024395             0.016537
Rotational constants in MHz :          1314.740458           731.354789           495.757732

                             ****ORCA TERMINATED NORMALLY****
TOTAL RUN TIME: 0 days 0 hours 0 minutes 11 seconds 506 msec
