                         Program Version 6.0.0  -   RELEASE  -
|  1> ! pbe def2-sv(p) def2/J RI DEFGRID1 loosescf d4 GCP(DFT/SV(P)) printgap
|  2> %output
|  3>     printlevel normal
|  4> end
|  5> * xyz 0 1
|  6> C -2.0435104432 -1.1976493373 -0.3018353662
|  7> C -1.2792161381 -0.3472173789 0.7325417046
|  8> H -1.9351327244 -0.2495826198 1.604017922
|  9> C -0.9405157514 1.0788170177 0.2218485889
| 10> H -1.261305825 1.2063983693 -0.8165588707
| 11> C 0.5792204282 1.2902344826 0.2630788326
| 12> H 0.9041111952 1.3590527184 1.3165040073
| 13> C 1.269499633 0.081503689 -0.3930112936
| 14> H 0.8749414374 -0.0438275314 -1.4073218584
| 15> C 0.9764214628 -1.1917923168 0.4280189186
| 16> H 1.8009552109 -1.3861015746 1.1267640057
| 17> O -0.1399879608 -1.0129094194 1.2718395417
| 18> O 0.8935471443 -2.3328180125 -0.3552220717
| 19> O 2.6412417437 0.3277500202 -0.5672797659
| 20> O 0.9061508612 2.4777182543 -0.4118395425
| 21> O -1.651799618 2.0611723528 0.9265016204
| 22> O -1.3992612093 -1.2974937562 -1.5566588357
| 23> H -3.0469612138 -0.7817645311 -0.4080711074
| 24> H -2.1183538488 -2.2143655107 0.0941770908
| 25> H 0.1791492227 -2.2282492094 -1.0137117376
| 26> H 3.1064514909 0.2705171366 0.2802381563
| 27> H 1.8075386856 2.385705435 -0.7638200935
| 28> H -1.2844423642 2.1664875215 1.8158047135
| 29> H -1.7300732308 -0.621370818 -2.1614128523
| 30> *
| 31>
| 32>                          ****END OF INPUT****

CARTESIAN COORDINATES (ANGSTROEM)
---------------------------------
  C     -2.043510   -1.197649   -0.301835
  C     -1.279216   -0.347217    0.732542
  H     -1.935133   -0.249583    1.604018
  C     -0.940516    1.078817    0.221849
  H     -1.261306    1.206398   -0.816559
  C      0.579220    1.290234    0.263079
  H      0.904111    1.359053    1.316504
  C      1.269500    0.081504   -0.393011
  H      0.874941   -0.043828   -1.407322
  C      0.976421   -1.191792    0.428019
  H      1.800955   -1.386102    1.126764
  O     -0.139988   -1.012909    1.271840
  O      0.893547   -2.332818   -0.355222
  O      2.641242    0.327750   -0.567280
  O      0.906151    2.477718   -0.411840
  O     -1.651800    2.061172    0.926502
  O     -1.399261   -1.297494   -1.556659
  H     -3.046961   -0.781765   -0.408071
  H     -2.118354   -2.214366    0.094177
  H      0.179149   -2.228249   -1.013712
  H      3.106451    0.270517    0.280238
  H      1.807539    2.385705   -0.763820
  H     -1.284442    2.166488    1.815805
  H     -1.730073   -0.621371   -2.161413

 Total Charge           Charge          ....    0
 Multiplicity           Mult            ....    1
 Number of Electrons    NEL             ....   96
 Basis Dimension        Dim             ....  192

ORBITAL ENERGIES
----------------

  NO   OCC          E(Eh)            E(eV)
   0   2.0000     -18.791105      -511.3320
   1   2.0000     -18.769584      -510.7463
   2   2.0000     -18.766221      -510.6548
   3   2.0000     -18.751863      -510.2641
   4   2.0000     -18.744243      -510.0568
   5   2.0000     -18.740991      -509.9683
   6   2.0000      -9.983969      -271.6776
   7   2.0000      -9.952170      -270.8123
   8   2.0000      -9.949152      -270.7302
   9   2.0000      -9.948977      -270.7254
  10   2.0000      -9.945505      -270.6310
  11   2.0000      -9.943607      -270.5793
  12   2.0000      -0.977805       -26.6074
  13   2.0000      -0.957256       -26.0483
  14   2.0000      -0.947596       -25.7854
  15   2.0000      -0.935825       -25.4651
  16   2.0000      -0.913274       -24.8515
  17   2.0000      -0.901858       -24.5408
  18   2.0000      -0.707096       -19.2411
  19   2.0000      -0.694240       -18.8912
  20   2.0000      -0.631044       -17.1716
  21   2.0000      -0.592830       -16.1317
  22   2.0000      -0.576252       -15.6806
  23   2.0000      -0.538281       -14.6474
  24   2.0000      -0.507048       -13.7975
  25   2.0000      -0.489777       -13.3275
  26   2.0000      -0.474936       -12.9237
  27   2.0000      -0.463459       -12.6113
  28   2.0000      -0.447525       -12.1778
  29   2.0000      -0.439190       -11.9510
  30   2.0000      -0.421083       -11.4582
  31   2.0000      -0.417455       -11.3595
  32   2.0000      -0.409183       -11.1344
  33   2.0000      -0.374187       -10.1821
  34   2.0000      -0.354767        -9.6537
  35   2.0000      -0.349276        -9.5043
  36   2.0000      -0.326896        -8.8953
  37   2.0000      -0.320345        -8.7170
  38   2.0000      -0.312931        -8.5153
  39   2.0000      -0.286728        -7.8023
  40   2.0000      -0.286458        -7.7949
  41   2.0000      -0.280192        -7.6244
  42   2.0000      -0.269148        -7.3239
  43   2.0000      -0.258206        -7.0262
  44   2.0000      -0.233447        -6.3524
  45   2.0000      -0.232488        -6.3263
  46   2.0000      -0.208926        -5.6852
  47   2.0000      -0.201911        -5.4943
  48   0.0000      -0.006381        -0.1736
  49   0.0000       0.017135         0.4663
  50   0.0000       0.029333         0.7982
  51   0.0000       0.040772         1.1095
  52   0.0000       0.061041         1.6610

MULLIKEN ATOMIC CHARGES
-----------------------
   0 C :   -0.027569
   1 C :    0.079940
   2 H :    0.068472
   3 C :    0.066694
   4 H :    0.038734
   5 C :    0.062346
   6 H :    0.028632
   7 C :   -0.029234
   8 H :    0.058703
   9 C :    0.232981
  10 H :    0.048365
  11 O :   -0.307022
  12 O :   -0.406183
  13 O :   -0.412030
  14 O :   -0.407844
  15 O :   -0.410060
  16 O :   -0.441312
  17 H :    0.104540
  18 H :    0.109926
  19 H :    0.312208
  20 H :    0.302815
  21 H :    0.298677
  22 H :    0.301348
  23 H :    0.326871
Sum of atomic charges:    0.0000000

LOEWDIN ATOMIC CHARGES
----------------------
   0 C :   -0.139907
   1 C :   -0.077296
   2 H :    0.123373
   3 C :   -0.066205
   4 H :    0.105160
   5 C :   -0.084428
   6 H :    0.092162
   7 C :   -0.101371
   8 H :    0.115188
   9 C :   -0.007604
  10 H :    0.105114
  11 O :   -0.151576
  12 O :   -0.311278
  13 O :   -0.303275
  14 O :   -0.322470
  15 O :   -0.309314
  16 O :   -0.326274
  17 H :    0.117266
  18 H :    0.122095
  19 H :    0.273586
  20 H :    0.286060
  21 H :    0.277841
  22 H :    0.285364
  23 H :    0.297790

  Mayer bond orders larger than 0.100000
B(  0-C ,  1-C ) :   1.0148 B(  0-C , 16-O ) :   1.0361 B(  0-C , 17-H ) :   0.9231
B(  0-C , 18-H ) :   0.9184 B(  1-C ,  2-H ) :   0.8819 B(  1-C ,  3-C ) :   0.9273
B(  1-C , 11-O ) :   1.0454 B(  3-C ,  4-H ) :   0.8776 B(  3-C ,  5-C ) :   1.0112
B(  3-C , 15-O ) :   1.0581 B(  5-C ,  6-H ) :   0.8544 B(  5-C ,  7-C ) :   0.9936
B(  5-C , 14-O ) :   1.1217 B(  7-C ,  8-H ) :   0.8670 B(  7-C ,  9-C ) :   0.9712
B(  7-C , 13-O ) :   1.0191 B(  9-C , 10-H ) :   0.8900 B(  9-C , 11-O ) :   1.0362
B(  9-C , 12-O ) :   1.1544 B( 12-O , 19-H ) :   0.7999 B( 13-O , 20-H ) :   0.8441
B( 14-O , 21-H ) :   0.8233 B( 15-O , 22-H ) :   0.8482 B( 16-O , 23-H ) :   0.8302

Dispersion correction           -0.025289011
FINAL SINGLE POINT ENERGY      -685.691380496000

DIPOLE MOMENT
-------------

Method             : SCF
Type of density    : Electron Density
Multiplicity       :   1
Irrep              :   0
Energy             :  -685.8234850623218790 Eh
Relativity type    :
Basis              : AO
                                X                 Y                 Z
Electronic contribution:      2.179756904       0.288803382       0.485709110
Nuclear contribution   :     -2.517471754      -0.125313854      -0.323038513
                        -----------------------------------------
Total Dipole Moment    :     -0.337714849       0.163489528       0.162670597
                        -----------------------------------------
Magnitude (a.u.)       :      0.408952159
Magnitude (Debye)      :      1.039473780

Rotational constants in cm-1:             0.035387             0.032634             0.021729
Rotational constants in MHz :          1060.882555           978.356762           651.431931

                             ****ORCA TERMINATED NORMALLY****
TOTAL RUN TIME: 0 days 0 hours 0 minutes 11 seconds 920 msec
