                         Program Version 6.0.0  -   RELEASE  -
|  1> ! pbe def2-sv(p) def2/J RI DEFGRID1 loosescf d4 GCP(DFT/SV(P)) printgap
|  2> %output
|  3>     printlevel normal
|  4> end
|  5> * xyz 0 1
|  6> C -2.0692727928 0.0707601554 -0.0001326622
|  7> C -0.7066249558 0.685634723 0.0002166613
|  8> C 0.4516494707 0.0373031357 0.0002059289
|  9> C 1.7618089715 0.7680709474 -0.0001378244
| 10> C 0.5563704657 -1.4646277538 2.8284e-05
| 11> H -2.6249870997 0.3971925245 0.8787843555
| 12> H -2.6244202576 0.3978867262 -0.879137868
| 13> H -2.023232838 -1.0133308081 -0.0006330996
| 14> H -0.7025937292 1.7689567718 0.0001597871
| 15> H 2.3428604075 0.4958666336 0.8804615688
| 16> H 2.34307321 0.4942385669 -0.8800639259
| 17> H 1.613372547 1.8448525741 -0.0011860797
| 18> H 0.0689595746 -1.8866336679 0.8773661837
| 19> H 0.0808784647 -1.8850584702 -0.8846365727
| 20> H 1.5984067126 -1.7715164613 0.006736133
| 21> *
| 22>
| 23>                          ****END OF INPUT****

CARTESIAN COORDINATES (ANGSTROEM)
---------------------------------
  C     -2.069273    0.070760   -0.000133
  C     -0.706625    0.685635    0.000217
  C      0.451649    0.037303    0.000206
  C      1.761809    0.768071   -0.000138
  C      0.556370   -1.464628    0.000028
  H     -2.624987    0.397193    0.878784
  H     -2.624420    0.397887   -0.879138
  H     -2.023233   -1.013331   -0.000633
  H     -0.702594    1.768957    0.000160
  H      2.342860    0.495867    0.880462
  H      2.343073    0.494239   -0.880064
  H      1.613373    1.844853   -0.001186
  H      0.068960   -1.886634    0.877366
  H      0.080878   -1.885058   -0.884637
  H      1.598407   -1.771516    0.006736

 Total Charge           Charge          ....    0
 Multiplicity           Mult            ....    1
 Number of Electrons    NEL             ....   40
 Basis Dimension        Dim             ....   90

ORBITAL ENERGIES
----------------

  NO   OCC          E(Eh)            E(eV)
   0   2.0000      -9.887582      -269.0548
   1   2.0000      -9.875399      -268.7233
   2   2.0000      -9.873879      -268.6819
   3   2.0000      -9.873264      -268.6652
   4   2.0000      -9.871369      -268.6136
   5   2.0000      -0.727468       -19.7954
   6   2.0000      -0.654718       -17.8158
   7   2.0000      -0.615965       -16.7613
   8   2.0000      -0.561749       -15.2860
   9   2.0000      -0.451110       -12.2753
  10   2.0000      -0.409517       -11.1435
  11   2.0000      -0.384975       -10.4757
  12   2.0000      -0.383215       -10.4278
  13   2.0000      -0.356797        -9.7089
  14   2.0000      -0.343121        -9.3368
  15   2.0000      -0.338590        -9.2135
  16   2.0000      -0.318468        -8.6660
  17   2.0000      -0.307511        -8.3678
  18   2.0000      -0.282489        -7.6869
  19   2.0000      -0.196408        -5.3445
  20   0.0000       0.001057         0.0288
  21   0.0000       0.043175         1.1749
  22   0.0000       0.069542         1.8923
  23   0.0000       0.077379         2.1056
  24   0.0000       0.108351         2.9484

MULLIKEN ATOMIC CHARGES
-----------------------
   0 C :   -0.221103
   1 C :   -0.197011
   2 C :   -0.107855
   3 C :   -0.226375
   4 C :   -0.243285
   5 H :    0.108151
   6 H :    0.108141
   7 H :    0.097956
   8 H :    0.048158
   9 H :    0.105268
  10 H :    0.105231
  11 H :    0.095483
  12 H :    0.116749
  13 H :    0.116697
  14 H :    0.093796
Sum of atomic charges:    0.0000000

LOEWDIN ATOMIC CHARGES
----------------------
   0 C :   -0.336953
   1 C :   -0.167990
   2 C :   -0.083161
   3 C :   -0.322259
   4 C :   -0.330952
   5 H :    0.127709
   6 H :    0.127736
   7 H :    0.120660
   8 H :    0.113129
   9 H :    0.124294
  10 H :    0.124286
  11 H :    0.120134
  12 H :    0.130951
  13 H :    0.131052
  14 H :    0.121362

  Mayer bond orders larger than 0.100000
B(  0-C ,  1-C ) :   1.1230 B(  0-C ,  5-H ) :   0.9377 B(  0-C ,  6-H ) :   0.9377
B(  0-C ,  7-H ) :   0.9378 B(  1-C ,  2-C ) :   1.9649 B(  1-C ,  8-H ) :   0.9164
B(  2-C ,  3-C ) :   1.1280 B(  2-C ,  4-C ) :   1.1048 B(  3-C ,  9-H ) :   0.9322
B(  3-C , 10-H ) :   0.9323 B(  3-C , 11-H ) :   0.9452 B(  4-C , 12-H ) :   0.9330
B(  4-C , 13-H ) :   0.9330 B(  4-C , 14-H ) :   0.9443

Dispersion correction           -0.010158911
FINAL SINGLE POINT ENERGY      -196.034416942082

DIPOLE MOMENT
-------------

Method             : SCF
Type of density    : Electron Density
Multiplicity       :   1
Irrep              :   0
Energy             :  -196.0817474517519656 Eh
Relativity type    :
Basis              : AO
                                X                 Y                 Z
Electronic contribution:     -0.053314631       0.984385313       0.001500662
Nuclear contribution   :      0.067845738      -1.085976250      -0.002016616
                        -----------------------------------------
Total Dipole Moment    :      0.014531106      -0.101590937      -0.000515954
                        -----------------------------------------
Magnitude (a.u.)       :      0.102626204
Magnitude (Debye)      :      0.260855080

Rotational constants in cm-1:             0.271791             0.120111             0.087342
Rotational constants in MHz :          8148.087601          3600.827454          2618.460589

                             ****ORCA TERMINATED NORMALLY****
TOTAL RUN TIME: 0 days 0 hours 0 minutes 4 seconds 590 msec
