                         Program Version 6.0.0  -   RELEASE  -
|  1> ! r2scan-3c def2/J RI DEFGRID2 scfconv6 printgap
|  2> %output
|  3>     printlevel normal
|  4> end
|  5> * xyz 0 1
|  6> C -2.5245932587 -0.9846116217 0.3423497085
|  7> C -1.0977999756 -0.4844688254 0.6150067803
|  8> H -0.9377935249 -0.427225391 1.7024869837
|  9> C -0.8367245355 0.9042578352 0.0020668703
| 10> H -1.0327114765 0.8566472598 -1.0777507373
| 11> C 0.6345864687 1.2774362173 0.2203394652
| 12> H 0.8022804467 1.3972969044 1.3026702718
| 13> C 1.5603595726 0.1730264452 -0.3018779004
| 14> H 1.4491463582 0.1187119945 -1.3967567902
| 15> C 1.1508824412 -1.1802072252 0.3089795662
| 16> H 1.3316314644 -1.143343965 1.3952492279
| 17> O -0.2134258422 -1.4348167492 0.0461907362
| 18> O 1.8840329656 -2.24244306 -0.1627600519
| 19> O 2.8964940404 0.4193023885 0.0441073952
| 20> O 0.9742341215 2.4643803958 -0.4546739483
| 21> O -1.6080685366 1.9132295389 0.6082272923
| 22> O -2.856861831 -0.9529305067 -1.0209344446
| 23> H -3.2394705636 -0.3385654778 0.853725697
| 24> H -2.6108659442 -1.9996990232 0.7451598503
| 25> H 1.7561674545 -2.3391562298 -1.1201652624
| 26> H 3.1262667976 1.3132964054 -0.2548863506
| 27> H 0.3564049461 3.1589684985 -0.1816054494
| 28> H -2.5214681572 1.8576328294 0.2954183851
| 29> H -2.2995255033 -1.5907933409 -1.4881762036
| 30> *
| 31>
| 32>                          ****END OF INPUT****

CARTESIAN COORDINATES (ANGSTROEM)
---------------------------------
  C     -2.524593   -0.984612    0.342350
  C     -1.097800   -0.484469    0.615007
  H     -0.937794   -0.427225    1.702487
  C     -0.836725    0.904258    0.002067
  H     -1.032711    0.856647   -1.077751
  C      0.634586    1.277436    0.220339
  H      0.802280    1.397297    1.302670
  C      1.560360    0.173026   -0.301878
  H      1.449146    0.118712   -1.396757
  C      1.150882   -1.180207    0.308980
  H      1.331631   -1.143344    1.395249
  O     -0.213426   -1.434817    0.046191
  O      1.884033   -2.242443   -0.162760
  O      2.896494    0.419302    0.044107
  O      0.974234    2.464380   -0.454674
  O     -1.608069    1.913230    0.608227
  O     -2.856862   -0.952931   -1.020934
  H     -3.239471   -0.338565    0.853726
  H     -2.610866   -1.999699    0.745160
  H      1.756167   -2.339156   -1.120165
  H      3.126267    1.313296   -0.254886
  H      0.356405    3.158968   -0.181605
  H     -2.521468    1.857633    0.295418
  H     -2.299526   -1.590793   -1.488176

 Total Charge           Charge          ....    0
 Multiplicity           Mult            ....    1
 Number of Electrons    NEL             ....   96
 Basis Dimension        Dim             ....  318

ORBITAL ENERGIES
----------------

  NO   OCC          E(Eh)            E(eV)
   0   2.0000     -18.974838      -516.3316
   1   2.0000     -18.974666      -516.3269
   2   2.0000     -18.966465      -516.1037
   3   2.0000     -18.964560      -516.0519
   4   2.0000     -18.963278      -516.0170
   5   2.0000     -18.955331      -515.8008
   6   2.0000     -10.141321      -275.9594
   7   2.0000     -10.097677      -274.7718
   8   2.0000     -10.094155      -274.6759
   9   2.0000     -10.093268      -274.6518
  10   2.0000     -10.092658      -274.6352
  11   2.0000     -10.091947      -274.6158
  12   2.0000      -1.053946       -28.6793
  13   2.0000      -1.020440       -27.7676
  14   2.0000      -1.008517       -27.4431
  15   2.0000      -1.001119       -27.2418
  16   2.0000      -0.987715       -26.8771
  17   2.0000      -0.982310       -26.7300
  18   2.0000      -0.755130       -20.5481
  19   2.0000      -0.739683       -20.1278
  20   2.0000      -0.667565       -18.1654
  21   2.0000      -0.620095       -16.8736
  22   2.0000      -0.598485       -16.2856
  23   2.0000      -0.567045       -15.4301
  24   2.0000      -0.527477       -14.3534
  25   2.0000      -0.520087       -14.1523
  26   2.0000      -0.501533       -13.6474
  27   2.0000      -0.482954       -13.1418
  28   2.0000      -0.467688       -12.7264
  29   2.0000      -0.461332       -12.5535
  30   2.0000      -0.442852       -12.0506
  31   2.0000      -0.434845       -11.8327
  32   2.0000      -0.409834       -11.1521
  33   2.0000      -0.405551       -11.0356
  34   2.0000      -0.389008       -10.5854
  35   2.0000      -0.378695       -10.3048
  36   2.0000      -0.353177        -9.6104
  37   2.0000      -0.340594        -9.2680
  38   2.0000      -0.332903        -9.0588
  39   2.0000      -0.321661        -8.7528
  40   2.0000      -0.311846        -8.4857
  41   2.0000      -0.304440        -8.2842
  42   2.0000      -0.282113        -7.6767
  43   2.0000      -0.262572        -7.1450
  44   2.0000      -0.256172        -6.9708
  45   2.0000      -0.254070        -6.9136
  46   2.0000      -0.244215        -6.6454
  47   2.0000      -0.231366        -6.2958
  48   0.0000       0.029702         0.8082
  49   0.0000       0.038004         1.0342
  50   0.0000       0.057134         1.5547
  51   0.0000       0.075848         2.0639
  52   0.0000       0.078231         2.1288

MULLIKEN ATOMIC CHARGES
-----------------------
   0 C :   -0.266007
   1 C :    0.053315
   2 H :    0.168706
   3 C :   -0.093462
   4 H :    0.192390
   5 C :   -0.023436
   6 H :    0.167760
   7 C :    0.090637
   8 H :    0.159333
   9 C :   -0.198463
  10 H :    0.156923
  11 O :   -0.194208
  12 O :   -0.347162
  13 O :   -0.417922
  14 O :   -0.442698
  15 O :   -0.446386
  16 O :   -0.420640
  17 H :    0.142993
  18 H :    0.150525
  19 H :    0.309988
  20 H :    0.315556
  21 H :    0.313080
  22 H :    0.314651
  23 H :    0.314529
Sum of atomic charges:   -0.0000000

LOEWDIN ATOMIC CHARGES
----------------------
   0 C :    0.037449
   1 C :    0.104337
   2 H :    0.186602
   3 C :    0.103512
   4 H :    0.191906
   5 C :    0.108149
   6 H :    0.186146
   7 C :    0.117552
   8 H :    0.181125
   9 C :    0.300083
  10 H :    0.199981
  11 O :   -0.688950
  12 O :   -0.464705
  13 O :   -0.557481
  14 O :   -0.578843
  15 O :   -0.583578
  16 O :   -0.597018
  17 H :    0.180943
  18 H :    0.174497
  19 H :    0.279412
  20 H :    0.284168
  21 H :    0.283052
  22 H :    0.277420
  23 H :    0.274240

  Mayer bond orders larger than 0.100000
B(  0-C ,  1-C ) :   0.8988 B(  0-C , 16-O ) :   1.0189 B(  0-C , 17-H ) :   0.9803
B(  0-C , 18-H ) :   0.9817 B(  1-C ,  2-H ) :   0.9368 B(  1-C ,  3-C ) :   0.7340
B(  1-C , 11-O ) :   0.7539 B(  1-C , 16-O ) :  -0.1251 B(  3-C ,  4-H ) :   1.0271
B(  3-C ,  5-C ) :   0.8139 B(  3-C , 15-O ) :   0.8995 B(  5-C ,  6-H ) :   0.9845
B(  5-C ,  7-C ) :   0.8821 B(  5-C , 14-O ) :   0.9173 B(  7-C ,  8-H ) :   0.9445
B(  7-C ,  9-C ) :   0.8375 B(  7-C , 13-O ) :   0.8879 B(  9-C , 10-H ) :   1.0100
B(  9-C , 11-O ) :   0.9486 B(  9-C , 12-O ) :   1.1469 B( 12-O , 19-H ) :   0.8766
B( 13-O , 20-H ) :   0.8766 B( 14-O , 21-H ) :   0.8763 B( 15-O , 22-H ) :   0.8864
B( 16-O , 23-H ) :   0.8799

Dispersion correction           -0.008059310
FINAL SINGLE POINT ENERGY      -687.077706844070

DIPOLE MOMENT
-------------

Method             : SCF
Type of density    : Electron Density
Multiplicity       :   1
Irrep              :   0
Energy             :  -687.0889239540200606 Eh
Relativity type    :
Basis              : AO
                                X                 Y                 Z
Electronic contribution:      2.745306519      -0.464301829      -0.927516032
Nuclear contribution   :     -3.567805014       0.812833540       0.713505314
                        -----------------------------------------
Total Dipole Moment    :     -0.822498495       0.348531711      -0.214010719
                        -----------------------------------------
Magnitude (a.u.)       :      0.918574284
Magnitude (Debye)      :      2.334830277

Rotational constants in cm-1:             0.039460             0.026833             0.017619
Rotational constants in MHz :          1182.994804           804.440893           528.199500

                             ****ORCA TERMINATED NORMALLY****
TOTAL RUN TIME: 0 days 0 hours 0 minutes 49 seconds 459 msec
