                         Program Version 6.0.0  -   RELEASE  -
|  1> ! r2scan-3c def2/J RI DEFGRID2 scfconv6 printgap
|  2> %output
|  3>     printlevel normal
|  4> end
|  5> %cpcm
|  6>     smd true
|  7>     smdsolvent "water"
|  8> end
|  9> * xyz 0 1
| 10> C -2.5245932587 -0.9846116217 0.3423497085
| 11> C -1.0977999756 -0.4844688254 0.6150067803
| 12> H -0.9377935249 -0.427225391 1.7024869837
| 13> C -0.8367245355 0.9042578352 0.0020668703
| 14> H -1.0327114765 0.8566472598 -1.0777507373
| 15> C 0.6345864687 1.2774362173 0.2203394652
| 16> H 0.8022804467 1.3972969044 1.3026702718
| 17> C 1.5603595726 0.1730264452 -0.3018779004
| 18> H 1.4491463582 0.1187119945 -1.3967567902
| 19> C 1.1508824412 -1.1802072252 0.3089795662
| 20> H 1.3316314644 -1.143343965 1.3952492279
| 21> O -0.2134258422 -1.4348167492 0.0461907362
| 22> O 1.8840329656 -2.24244306 -0.1627600519
| 23> O 2.8964940404 0.4193023885 0.0441073952
| 24> O 0.9742341215 2.4643803958 -0.4546739483
| 25> O -1.6080685366 1.9132295389 0.6082272923
| 26> O -2.856861831 -0.9529305067 -1.0209344446
| 27> H -3.2394705636 -0.3385654778 0.853725697
| 28> H -2.6108659442 -1.9996990232 0.7451598503
| 29> H 1.7561674545 -2.3391562298 -1.1201652624
| 30> H 3.1262667976 1.3132964054 -0.2548863506
| 31> H 0.3564049461 3.1589684985 -0.1816054494
| 32> H -2.5214681572 1.8576328294 0.2954183851
| 33> H -2.2995255033 -1.5907933409 -1.4881762036
| 34> *
| 35>
| 36>                          ****END OF INPUT****

CARTESIAN COORDINATES (ANGSTROEM)
---------------------------------
  C     -2.524593   -0.984612    0.342350
  C     -1.097800   -0.484469    0.615007
  H     -0.937794   -0.427225    1.702487
  C     -0.836725    0.904258    0.002067
  H     -1.032711    0.856647   -1.077751
  C      0.634586    1.277436    0.220339
  H      0.802280    1.397297    1.302670
  C      1.560360    0.173026   -0.301878
  H      1.449146    0.118712   -1.396757
  C      1.150882   -1.180207    0.308980
  H      1.331631   -1.143344    1.395249
  O     -0.213426   -1.434817    0.046191
  O      1.884033   -2.242443   -0.162760
  O      2.896494    0.419302    0.044107
  O      0.974234    2.464380   -0.454674
  O     -1.608069    1.913230    0.608227
  O     -2.856862   -0.952931   -1.020934
  H     -3.239471   -0.338565    0.853726
  H     -2.610866   -1.999699    0.745160
  H      1.756167   -2.339156   -1.120165
  H      3.126267    1.313296   -0.254886
  H      0.356405    3.158968   -0.181605
  H     -2.521468    1.857633    0.295418
  H     -2.299526   -1.590793   -1.488176

 Total Charge           Charge          ....    0
 Multiplicity           Mult            ....    1
 Number of Electrons    NEL             ....   96
 Basis Dimension        Dim             ....  318

ORBITAL ENERGIES
----------------

  NO   OCC          E(Eh)            E(eV)
   0   2.0000     -18.972077      -516.2565
   1   2.0000     -18.970263      -516.2071
   2   2.0000     -18.963075      -516.0115
   3   2.0000     -18.961292      -515.9630
   4   2.0000     -18.960099      -515.9305
   5   2.0000     -18.957023      -515.8468
   6   2.0000     -10.137990      -275.8687
   7   2.0000     -10.087280      -274.4889
   8   2.0000     -10.085910      -274.4516
   9   2.0000     -10.085808      -274.4488
  10   2.0000     -10.084138      -274.4033
  11   2.0000     -10.076986      -274.2087
  12   2.0000      -1.052868       -28.6500
  13   2.0000      -1.014025       -27.5930
  14   2.0000      -1.004987       -27.3471
  15   2.0000      -0.995060       -27.0770
  16   2.0000      -0.985175       -26.8080
  17   2.0000      -0.981856       -26.7176
  18   2.0000      -0.746999       -20.3269
  19   2.0000      -0.732167       -19.9233
  20   2.0000      -0.658081       -17.9073
  21   2.0000      -0.614657       -16.7257
  22   2.0000      -0.590972       -16.0812
  23   2.0000      -0.559392       -15.2218
  24   2.0000      -0.519663       -14.1408
  25   2.0000      -0.514386       -13.9971
  26   2.0000      -0.492378       -13.3983
  27   2.0000      -0.475505       -12.9391
  28   2.0000      -0.460756       -12.5378
  29   2.0000      -0.455459       -12.3937
  30   2.0000      -0.438101       -11.9213
  31   2.0000      -0.432916       -11.7802
  32   2.0000      -0.401256       -10.9187
  33   2.0000      -0.395803       -10.7704
  34   2.0000      -0.382409       -10.4059
  35   2.0000      -0.375643       -10.2218
  36   2.0000      -0.354217        -9.6387
  37   2.0000      -0.341204        -9.2846
  38   2.0000      -0.331678        -9.0254
  39   2.0000      -0.316658        -8.6167
  40   2.0000      -0.313430        -8.5289
  41   2.0000      -0.299839        -8.1590
  42   2.0000      -0.281355        -7.6561
  43   2.0000      -0.261857        -7.1255
  44   2.0000      -0.252899        -6.8817
  45   2.0000      -0.250317        -6.8115
  46   2.0000      -0.246410        -6.7052
  47   2.0000      -0.226537        -6.1644
  48   0.0000       0.044286         1.2051
  49   0.0000       0.056080         1.5260
  50   0.0000       0.073798         2.0082
  51   0.0000       0.089304         2.4301
  52   0.0000       0.095445         2.5972

MULLIKEN ATOMIC CHARGES
-----------------------
   0 C :   -0.248029
   1 C :    0.020196
   2 H :    0.195856
   3 C :   -0.095571
   4 H :    0.197497
   5 C :   -0.007363
   6 H :    0.180242
   7 C :    0.070791
   8 H :    0.184550
   9 C :   -0.152657
  10 H :    0.178522
  11 O :   -0.240415
  12 O :   -0.429936
  13 O :   -0.491761
  14 O :   -0.498917
  15 O :   -0.496652
  16 O :   -0.486983
  17 H :    0.167793
  18 H :    0.160497
  19 H :    0.368723
  20 H :    0.354367
  21 H :    0.351040
  22 H :    0.361974
  23 H :    0.356235
Sum of atomic charges:   -0.0000000

LOEWDIN ATOMIC CHARGES
----------------------
   0 C :    0.039303
   1 C :    0.109367
   2 H :    0.197467
   3 C :    0.106438
   4 H :    0.195148
   5 C :    0.109277
   6 H :    0.193179
   7 C :    0.118567
   8 H :    0.193286
   9 C :    0.297147
  10 H :    0.207779
  11 O :   -0.700898
  12 O :   -0.498578
  13 O :   -0.591554
  14 O :   -0.600131
  15 O :   -0.597264
  16 O :   -0.624912
  17 H :    0.192821
  18 H :    0.179523
  19 H :    0.299371
  20 H :    0.297438
  21 H :    0.295189
  22 H :    0.294393
  23 H :    0.287644

  Mayer bond orders larger than 0.100000
B(  0-C ,  1-C ) :   0.9247 B(  0-C , 16-O ) :   0.9977 B(  0-C , 17-H ) :   0.9655
B(  0-C , 18-H ) :   0.9732 B(  1-C ,  2-H ) :   0.9291 B(  1-C ,  3-C ) :   0.7675
B(  1-C , 11-O ) :   0.7577 B(  1-C , 16-O ) :  -0.1023 B(  3-C ,  4-H ) :   1.0179
B(  3-C ,  5-C ) :   0.8452 B(  3-C , 15-O ) :   0.8955 B(  5-C ,  6-H ) :   0.9616
B(  5-C ,  7-C ) :   0.9048 B(  5-C , 14-O ) :   0.9015 B(  7-C ,  8-H ) :   0.9417
B(  7-C ,  9-C ) :   0.8466 B(  7-C , 13-O ) :   0.8676 B(  9-C , 10-H ) :   0.9991
B(  9-C , 11-O ) :   0.9543 B(  9-C , 12-O ) :   1.1215 B( 12-O , 19-H ) :   0.8468
B( 13-O , 20-H ) :   0.8581 B( 14-O , 21-H ) :   0.8577 B( 15-O , 22-H ) :   0.8603
B( 16-O , 23-H ) :   0.8578

Dispersion correction           -0.008059310
FINAL SINGLE POINT ENERGY      -687.112849555541

DIPOLE MOMENT
-------------

Method             : SCF
Type of density    : Electron Density
Multiplicity       :   1
Irrep              :   0
Energy             :  -687.1240666654903180 Eh
Relativity type    :
Basis              : AO
                                X                 Y                 Z
Electronic contribution:      2.382931217      -0.313567111      -0.973528412
Nuclear contribution   :     -3.567805014       0.812833540       0.713505314
                        -----------------------------------------
Total Dipole Moment    :     -1.184873796       0.499266429      -0.260023099
                        -----------------------------------------
Magnitude (a.u.)       :      1.311794531
Magnitude (Debye)      :      3.334316715

Rotational constants in cm-1:             0.039460             0.026833             0.017619
Rotational constants in MHz :          1182.994804           804.440893           528.199500

                             ****ORCA TERMINATED NORMALLY****
TOTAL RUN TIME: 0 days 0 hours 0 minutes 58 seconds 258 msec
