                         Program Version 6.0.0  -   RELEASE  -
|  1> ! pbe def2-sv(p) def2/J RI DEFGRID1 loosescf d4 GCP(DFT/SV(P)) printgap
|  2> %output
|  3>     printlevel normal
|  4> end
|  5> * xyz 0 1
|  6> C -4.382783845 0.5121092437 0.1690273757
|  7> C -3.5626305601 1.4968544823 0.6895702583
|  8> C -2.1851486764 1.3531921963 0.6400833231
|  9> C -1.5991283624 0.2213388706 0.0728380408
| 10> C -2.4332054465 -0.7723794434 -0.433168787
| 11> C -3.8073815539 -0.6197346636 -0.3867770045
| 12> Cl -4.8226044666 -1.8690508342 -1.0353077277
| 13> C -0.1369295597 0.0423610833 0.0025766753
| 14> C 0.4402249226 -1.1221668135 0.4993371394
| 15> C 1.8118151051 -1.2958529287 0.4402653049
| 16> C 2.6293780839 -0.3180326035 -0.1207516879
| 17> C 2.0412267959 0.837635737 -0.6285177459
| 18> C 0.6709265274 1.0199978908 -0.5693906598
| 19> Cl 3.0373704292 2.0559750487 -1.339759807
| 20> Cl 4.3413593467 -0.5353983694 -0.1884523188
| 21> Cl 2.5227292737 -2.7375081949 1.0702723516
| 22> Cl -1.1935664092 2.5876654372 1.3540882218
| 23> H -5.4539377904 0.6209545843 0.2000540355
| 24> H -3.9911043884 2.3781434826 1.1372461155
| 25> H -1.9977561128 -1.6521864394 -0.877561035
| 26> H -0.1727209178 -1.8862747085 0.9481479523
| 27> H 0.2395565215 1.9165278118 -0.9828636037
| 28> *
| 29>
| 30>                          ****END OF INPUT****

CARTESIAN COORDINATES (ANGSTROEM)
---------------------------------
  C     -4.382784    0.512109    0.169027
  C     -3.562631    1.496854    0.689570
  C     -2.185149    1.353192    0.640083
  C     -1.599128    0.221339    0.072838
  C     -2.433205   -0.772379   -0.433169
  C     -3.807382   -0.619735   -0.386777
  Cl    -4.822604   -1.869051   -1.035308
  C     -0.136930    0.042361    0.002577
  C      0.440225   -1.122167    0.499337
  C      1.811815   -1.295853    0.440265
  C      2.629378   -0.318033   -0.120752
  C      2.041227    0.837636   -0.628518
  C      0.670927    1.019998   -0.569391
  Cl     3.037370    2.055975   -1.339760
  Cl     4.341359   -0.535398   -0.188452
  Cl     2.522729   -2.737508    1.070272
  Cl    -1.193566    2.587665    1.354088
  H     -5.453938    0.620955    0.200054
  H     -3.991104    2.378143    1.137246
  H     -1.997756   -1.652186   -0.877561
  H     -0.172721   -1.886275    0.948148
  H      0.239557    1.916528   -0.982864

 Total Charge           Charge          ....    0
 Multiplicity           Mult            ....    1
 Number of Electrons    NEL             ....  162
 Basis Dimension        Dim             ....  268

ORBITAL ENERGIES
----------------

  NO   OCC          E(Eh)            E(eV)
   0   2.0000    -100.655559     -2738.9770
   1   2.0000    -100.654732     -2738.9545
   2   2.0000    -100.654715     -2738.9540
   3   2.0000    -100.653819     -2738.9297
   4   2.0000    -100.651172     -2738.8576
   5   2.0000      -9.975990      -271.4605
   6   2.0000      -9.975108      -271.4365
   7   2.0000      -9.975044      -271.4348
   8   2.0000      -9.971327      -271.3336
   9   2.0000      -9.970993      -271.3245
  10   2.0000      -9.937742      -270.4197
  11   2.0000      -9.935363      -270.3550
  12   2.0000      -9.925077      -270.0751
  13   2.0000      -9.924503      -270.0595
  14   2.0000      -9.923675      -270.0369
  15   2.0000      -9.922461      -270.0039
  16   2.0000      -9.922197      -269.9967
  17   2.0000      -9.191240      -250.1064
  18   2.0000      -9.190603      -250.0890
  19   2.0000      -9.190433      -250.0844
  20   2.0000      -9.189716      -250.0649
  21   2.0000      -9.187283      -249.9987
  22   2.0000      -7.023020      -191.1061
  23   2.0000      -7.022190      -191.0835
  24   2.0000      -7.021808      -191.0731
  25   2.0000      -7.021301      -191.0593
  26   2.0000      -7.018636      -190.9868
  27   2.0000      -7.011300      -190.7872
  28   2.0000      -7.010628      -190.7689
  29   2.0000      -7.010478      -190.7648
  30   2.0000      -7.010144      -190.7557
  31   2.0000      -7.009737      -190.7446
  32   2.0000      -7.009714      -190.7440
  33   2.0000      -7.009707      -190.7438
  34   2.0000      -7.008816      -190.7196
  35   2.0000      -7.007247      -190.6769
  36   2.0000      -7.006630      -190.6601
  37   2.0000      -0.860346       -23.4112
  38   2.0000      -0.842653       -22.9298
  39   2.0000      -0.814311       -22.1585
  40   2.0000      -0.813437       -22.1347
  41   2.0000      -0.789839       -21.4926
  42   2.0000      -0.773049       -21.0357
  43   2.0000      -0.758550       -20.6412
  44   2.0000      -0.717981       -19.5372
  45   2.0000      -0.677128       -18.4256
  46   2.0000      -0.673066       -18.3150
  47   2.0000      -0.656126       -17.8541
  48   2.0000      -0.593374       -16.1465
  49   2.0000      -0.572912       -15.5897
  50   2.0000      -0.560171       -15.2430
  51   2.0000      -0.535586       -14.5740
  52   2.0000      -0.492105       -13.3908
  53   2.0000      -0.476308       -12.9610
  54   2.0000      -0.471747       -12.8369
  55   2.0000      -0.453165       -12.3313
  56   2.0000      -0.438229       -11.9248
  57   2.0000      -0.424077       -11.5397
  58   2.0000      -0.412439       -11.2230
  59   2.0000      -0.411162       -11.1883
  60   2.0000      -0.408865       -11.1258
  61   2.0000      -0.399752       -10.8778
  62   2.0000      -0.384842       -10.4721
  63   2.0000      -0.375216       -10.2101
  64   2.0000      -0.358927        -9.7669
  65   2.0000      -0.350835        -9.5467
  66   2.0000      -0.346607        -9.4317
  67   2.0000      -0.338896        -9.2218
  68   2.0000      -0.336537        -9.1576
  69   2.0000      -0.315959        -8.5977
  70   2.0000      -0.296732        -8.0745
  71   2.0000      -0.295824        -8.0498
  72   2.0000      -0.286108        -7.7854
  73   2.0000      -0.285114        -7.7583
  74   2.0000      -0.279816        -7.6142
  75   2.0000      -0.279063        -7.5937
  76   2.0000      -0.262651        -7.1471
  77   2.0000      -0.259473        -7.0606
  78   2.0000      -0.231741        -6.3060
  79   2.0000      -0.230608        -6.2752
  80   2.0000      -0.220155        -5.9907
  81   0.0000      -0.083885        -2.2826
  82   0.0000      -0.066464        -1.8086
  83   0.0000      -0.062698        -1.7061
  84   0.0000      -0.044997        -1.2244
  85   0.0000      -0.038946        -1.0598

MULLIKEN ATOMIC CHARGES
-----------------------
   0 C :   -0.068843
   1 C :   -0.097915
   2 C :    0.073900
   3 C :    0.080987
   4 C :   -0.149380
   5 C :    0.135535
   6 Cl:   -0.075056
   7 C :    0.085562
   8 C :   -0.146476
   9 C :    0.070279
  10 C :    0.043470
  11 C :    0.060884
  12 C :   -0.123048
  13 Cl:   -0.044758
  14 Cl:   -0.021290
  15 Cl:   -0.045031
  16 Cl:   -0.057351
  17 H :    0.061661
  18 H :    0.059939
  19 H :    0.054743
  20 H :    0.051479
  21 H :    0.050709
Sum of atomic charges:    0.0000000

LOEWDIN ATOMIC CHARGES
----------------------
   0 C :   -0.131367
   1 C :   -0.127331
   2 C :   -0.126920
   3 C :   -0.039049
   4 C :   -0.123169
   5 C :   -0.131856
   6 Cl:    0.133147
   7 C :   -0.029405
   8 C :   -0.129887
   9 C :   -0.149222
  10 C :   -0.177474
  11 C :   -0.148859
  12 C :   -0.130240
  13 Cl:    0.154976
  14 Cl:    0.163430
  15 Cl:    0.154841
  16 Cl:    0.153627
  17 H :    0.136954
  18 H :    0.136908
  19 H :    0.138053
  20 H :    0.138370
  21 H :    0.134476

  Mayer bond orders larger than 0.100000
B(  0-C ,  1-C ) :   1.3484 B(  0-C ,  5-C ) :   1.3721 B(  0-C , 17-H ) :   0.9657
B(  1-C ,  2-C ) :   1.3601 B(  1-C , 18-H ) :   0.9616 B(  2-C ,  3-C ) :   1.4060
B(  2-C , 16-Cl) :   1.0231 B(  3-C ,  4-C ) :   1.3618 B(  3-C ,  7-C ) :   0.9521
B(  4-C ,  5-C ) :   1.3417 B(  4-C , 19-H ) :   0.9648 B(  5-C ,  6-Cl) :   0.9716
B(  7-C ,  8-C ) :   1.3184 B(  7-C , 12-C ) :   1.3049 B(  8-C ,  9-C ) :   1.3541
B(  8-C , 20-H ) :   0.9691 B(  9-C , 10-C ) :   1.4065 B(  9-C , 15-Cl) :   1.0382
B( 10-C , 11-C ) :   1.4007 B( 10-C , 14-Cl) :   1.1133 B( 11-C , 12-C ) :   1.3725
B( 11-C , 13-Cl) :   1.0381 B( 12-C , 21-H ) :   0.9647

Dispersion correction           -0.041498642
FINAL SINGLE POINT ENERGY     -2758.684592066585

DIPOLE MOMENT
-------------

Method             : SCF
Type of density    : Electron Density
Multiplicity       :   1
Irrep              :   0
Energy             : -2758.7154880084553952 Eh
Relativity type    :
Basis              : AO
                                X                 Y                 Z
Electronic contribution:     15.101264369      -1.782272568      -0.523898088
Nuclear contribution   :    -15.887529668       1.960868995       0.585527876
                        -----------------------------------------
Total Dipole Moment    :     -0.786265299       0.178596427       0.061629788
                        -----------------------------------------
Magnitude (a.u.)       :      0.808645803
Magnitude (Debye)      :      2.055414286

Rotational constants in cm-1:             0.014449             0.005132             0.004248
Rotational constants in MHz :           433.171701           153.855218           127.364085

                             ****ORCA TERMINATED NORMALLY****
TOTAL RUN TIME: 0 days 0 hours 0 minutes 17 seconds 126 msec
