                         Program Version 6.0.0  -   RELEASE  -
|  1> ! r2scan-3c def2/J RI DEFGRID2 scfconv6 printgap
|  2> %output
|  3>     printlevel normal
|  4> end
|  5> * xyz 0 1
|  6> C 2.0903610133 2.7288066994 0.9715688653
|  7> C 2.1697594151 1.703375305 -0.1569099399
|  8> C 3.0087977264 0.4637812524 0.2441033909
|  9> C 2.0129416636 -0.653333916 0.1813162514
| 10> C 2.1399943106 -2.0001677652 0.4375839989
| 11> C 1.0224765275 -2.8143793322 0.3054296614
| 12> C -0.1964549942 -2.2852520057 -0.0799575541
| 13> C -0.3270389454 -0.9280818001 -0.3445468404
| 14> C 0.7859170126 -0.1123606283 -0.2018281186
| 15> O 0.8165423357 1.2215581149 -0.4072733798
| 16> O -1.5408964239 -0.3804052815 -0.7766619373
| 17> C -2.5482652242 -0.2944889215 0.1330643183
| 18> O -2.4470454655 -0.660057407 1.2904732373
| 19> N -3.635668558 0.2347823461 -0.4320894652
| 20> C -4.8643069348 0.4770552308 0.2896881597
| 21> C 2.6762999322 2.3432883371 -1.4473173079
| 22> H 1.4319232238 3.5439643036 0.683578602
| 23> H 1.6889658564 2.263019948 1.8689347398
| 24> H 3.0789368025 3.1247611102 1.1825963272
| 25> H 3.8330530156 0.3001903807 -0.450548169
| 26> H 3.4220916052 0.5712986773 1.2472483712
| 27> H 3.0888836819 -2.4135443095 0.7393402236
| 28> H 1.099207073 -3.8705768363 0.5061901634
| 29> H -1.066987424 -2.9154357492 -0.1750247936
| 30> H -3.5745868423 0.5119167191 -1.4000644061
| 31> H -5.0905514494 1.5426308129 0.3045144697
| 32> H -4.7269694675 0.1215281127 1.3089202853
| 33> H -5.6856294696 -0.0648375162 -0.1773319922
| 34> H 3.6781134164 2.7337180947 -1.2973354756
| 35> H 2.0157955996 3.1550345511 -1.7397550523
| 36> H 2.6920241274 1.6059118291 -2.2464543359
| 37> *
| 38>
| 39>                          ****END OF INPUT****

CARTESIAN COORDINATES (ANGSTROEM)
---------------------------------
  C      2.090361    2.728807    0.971569
  C      2.169759    1.703375   -0.156910
  C      3.008798    0.463781    0.244103
  C      2.012942   -0.653334    0.181316
  C      2.139994   -2.000168    0.437584
  C      1.022477   -2.814379    0.305430
  C     -0.196455   -2.285252   -0.079958
  C     -0.327039   -0.928082   -0.344547
  C      0.785917   -0.112361   -0.201828
  O      0.816542    1.221558   -0.407273
  O     -1.540896   -0.380405   -0.776662
  C     -2.548265   -0.294489    0.133064
  O     -2.447045   -0.660057    1.290473
  N     -3.635669    0.234782   -0.432089
  C     -4.864307    0.477055    0.289688
  C      2.676300    2.343288   -1.447317
  H      1.431923    3.543964    0.683579
  H      1.688966    2.263020    1.868935
  H      3.078937    3.124761    1.182596
  H      3.833053    0.300190   -0.450548
  H      3.422092    0.571299    1.247248
  H      3.088884   -2.413544    0.739340
  H      1.099207   -3.870577    0.506190
  H     -1.066987   -2.915436   -0.175025
  H     -3.574587    0.511917   -1.400064
  H     -5.090551    1.542631    0.304514
  H     -4.726969    0.121528    1.308920
  H     -5.685629   -0.064838   -0.177332
  H      3.678113    2.733718   -1.297335
  H      2.015796    3.155035   -1.739755
  H      2.692024    1.605912   -2.246454

 Total Charge           Charge          ....    0
 Multiplicity           Mult            ....    1
 Number of Electrons    NEL             ....  118
 Basis Dimension        Dim             ....  399

ORBITAL ENERGIES
----------------

  NO   OCC          E(Eh)            E(eV)
   0   2.0000     -18.994793      -516.8746
   1   2.0000     -18.978946      -516.4434
   2   2.0000     -18.908668      -514.5310
   3   2.0000     -14.189193      -386.1076
   4   2.0000     -10.166697      -276.6499
   5   2.0000     -10.105641      -274.9885
   6   2.0000     -10.090145      -274.5668
   7   2.0000     -10.086978      -274.4806
   8   2.0000     -10.066142      -273.9136
   9   2.0000     -10.043272      -273.2913
  10   2.0000     -10.037561      -273.1359
  11   2.0000     -10.031270      -272.9647
  12   2.0000     -10.031158      -272.9617
  13   2.0000     -10.026892      -272.8456
  14   2.0000     -10.025969      -272.8205
  15   2.0000     -10.025672      -272.8124
  16   2.0000      -1.070992       -29.1432
  17   2.0000      -1.036682       -28.2095
  18   2.0000      -0.971123       -26.4256
  19   2.0000      -0.898877       -24.4597
  20   2.0000      -0.821782       -22.3618
  21   2.0000      -0.783370       -21.3166
  22   2.0000      -0.736920       -20.0526
  23   2.0000      -0.716823       -19.5058
  24   2.0000      -0.678373       -18.4595
  25   2.0000      -0.667221       -18.1560
  26   2.0000      -0.655803       -17.8453
  27   2.0000      -0.595787       -16.2122
  28   2.0000      -0.578136       -15.7319
  29   2.0000      -0.552647       -15.0383
  30   2.0000      -0.542247       -14.7553
  31   2.0000      -0.522996       -14.2314
  32   2.0000      -0.476945       -12.9783
  33   2.0000      -0.453717       -12.3463
  34   2.0000      -0.449795       -12.2395
  35   2.0000      -0.445230       -12.1153
  36   2.0000      -0.442441       -12.0394
  37   2.0000      -0.432299       -11.7635
  38   2.0000      -0.412100       -11.2138
  39   2.0000      -0.409209       -11.1351
  40   2.0000      -0.389801       -10.6070
  41   2.0000      -0.386627       -10.5207
  42   2.0000      -0.381025       -10.3682
  43   2.0000      -0.374603       -10.1935
  44   2.0000      -0.372183       -10.1276
  45   2.0000      -0.362102        -9.8533
  46   2.0000      -0.355224        -9.6661
  47   2.0000      -0.347652        -9.4601
  48   2.0000      -0.340940        -9.2775
  49   2.0000      -0.332168        -9.0387
  50   2.0000      -0.327305        -8.9064
  51   2.0000      -0.315239        -8.5781
  52   2.0000      -0.298596        -8.1252
  53   2.0000      -0.286972        -7.8089
  54   2.0000      -0.271835        -7.3970
  55   2.0000      -0.235836        -6.4174
  56   2.0000      -0.230325        -6.2675
  57   2.0000      -0.221108        -6.0167
  58   2.0000      -0.190555        -5.1853
  59   0.0000      -0.027984        -0.7615
  60   0.0000      -0.009524        -0.2592
  61   0.0000       0.034170         0.9298
  62   0.0000       0.052338         1.4242
  63   0.0000       0.070530         1.9192

MULLIKEN ATOMIC CHARGES
-----------------------
   0 C :   -0.491438
   1 C :    0.308743
   2 C :   -0.464903
   3 C :    0.231678
   4 C :   -0.282661
   5 C :   -0.143691
   6 C :   -0.230027
   7 C :    0.049513
   8 C :    0.069785
   9 O :   -0.180332
  10 O :   -0.166157
  11 C :    0.353534
  12 O :   -0.486737
  13 N :   -0.162822
  14 C :   -0.393088
  15 C :   -0.493213
  16 H :    0.159524
  17 H :    0.162196
  18 H :    0.157016
  19 H :    0.172011
  20 H :    0.171334
  21 H :    0.148564
  22 H :    0.146059
  23 H :    0.154565
  24 H :    0.250527
  25 H :    0.143882
  26 H :    0.197079
  27 H :    0.143563
  28 H :    0.157150
  29 H :    0.160476
  30 H :    0.157871
Sum of atomic charges:    0.0000000

LOEWDIN ATOMIC CHARGES
----------------------
   0 C :   -0.367903
   1 C :    0.102638
   2 C :   -0.219424
   3 C :   -0.054668
   4 C :   -0.153932
   5 C :   -0.176457
   6 C :   -0.109541
   7 C :    0.211231
   8 C :    0.238713
   9 O :   -0.627171
  10 O :   -0.486359
  11 C :    0.458450
  12 O :   -0.411135
  13 N :   -0.605761
  14 C :   -0.108441
  15 C :   -0.368573
  16 H :    0.165328
  17 H :    0.167643
  18 H :    0.160681
  19 H :    0.175106
  20 H :    0.175907
  21 H :    0.169627
  22 H :    0.167687
  23 H :    0.182732
  24 H :    0.278440
  25 H :    0.168876
  26 H :    0.205248
  27 H :    0.169011
  28 H :    0.161103
  29 H :    0.165382
  30 H :    0.165562

  Mayer bond orders larger than 0.100000
B(  0-C ,  1-C ) :   0.9611 B(  0-C , 16-H ) :   0.9717 B(  0-C , 17-H ) :   0.9631
B(  0-C , 18-H ) :   0.9778 B(  1-C ,  2-C ) :   0.8871 B(  1-C ,  8-C ) :   0.1321
B(  1-C ,  9-O ) :   0.6421 B(  1-C , 15-C ) :   0.9617 B(  2-C ,  3-C ) :   0.6751
B(  2-C , 19-H ) :   0.9758 B(  2-C , 20-H ) :   0.9547 B(  3-C ,  4-C ) :   1.3027
B(  3-C ,  7-C ) :  -0.1021 B(  3-C ,  8-C ) :   1.3867 B(  4-C ,  5-C ) :   1.4138
B(  4-C , 21-H ) :   0.9400 B(  5-C ,  6-C ) :   1.3932 B(  5-C ,  8-C ) :   0.1019
B(  5-C , 22-H ) :   0.9528 B(  6-C ,  7-C ) :   1.3012 B(  6-C , 23-H ) :   0.9296
B(  7-C ,  8-C ) :   1.6786 B(  7-C , 10-O ) :   0.8597 B(  8-C ,  9-O ) :   1.1199
B( 10-O , 11-C ) :   1.0741 B( 11-C , 12-O ) :   1.8284 B( 11-C , 13-N ) :   1.2817
B( 13-N , 14-C ) :   0.8970 B( 13-N , 24-H ) :   0.9085 B( 14-C , 25-H ) :   0.9614
B( 14-C , 26-H ) :   0.9592 B( 14-C , 27-H ) :   0.9634 B( 15-C , 28-H ) :   0.9769
B( 15-C , 29-H ) :   0.9722 B( 15-C , 30-H ) :   0.9658

Dispersion correction           -0.011882458
FINAL SINGLE POINT ENERGY      -746.591537901272

DIPOLE MOMENT
-------------

Method             : SCF
Type of density    : Electron Density
Multiplicity       :   1
Irrep              :   0
Energy             :  -746.5996488875991872 Eh
Relativity type    :
Basis              : AO
                                X                 Y                 Z
Electronic contribution:     -5.236793168      -8.875537727      -1.010169589
Nuclear contribution   :      5.453511055       9.582293398       0.332078380
                        -----------------------------------------
Total Dipole Moment    :      0.216717887       0.706755670      -0.678091210
                        -----------------------------------------
Magnitude (a.u.)       :      1.003134043
Magnitude (Debye)      :      2.549764104

Rotational constants in cm-1:             0.027726             0.011810             0.009204
Rotational constants in MHz :           831.207135           354.043132           275.917010

                             ****ORCA TERMINATED NORMALLY****
TOTAL RUN TIME: 0 days 0 hours 1 minutes 9 seconds 654 msec
