                         Program Version 6.0.0  -   RELEASE  -
|  1> ! r2scan-3c def2/J RI DEFGRID2 scfconv6 printgap
|  2> %output
|  3>     printlevel normal
|  4> end
|  5> %cpcm
|  6>     smd true
|  7>     smdsolvent "water"
|  8> end
|  9> * xyz 0 1
| 10> C 2.0903610133 2.7288066994 0.9715688653
| 11> C 2.1697594151 1.703375305 -0.1569099399
| 12> C 3.0087977264 0.4637812524 0.2441033909
| 13> C 2.0129416636 -0.653333916 0.1813162514
| 14> C 2.1399943106 -2.0001677652 0.4375839989
| 15> C 1.0224765275 -2.8143793322 0.3054296614
| 16> C -0.1964549942 -2.2852520057 -0.0799575541
| 17> C -0.3270389454 -0.9280818001 -0.3445468404
| 18> C 0.7859170126 -0.1123606283 -0.2018281186
| 19> O 0.8165423357 1.2215581149 -0.4072733798
| 20> O -1.5408964239 -0.3804052815 -0.7766619373
| 21> C -2.5482652242 -0.2944889215 0.1330643183
| 22> O -2.4470454655 -0.660057407 1.2904732373
| 23> N -3.635668558 0.2347823461 -0.4320894652
| 24> C -4.8643069348 0.4770552308 0.2896881597
| 25> C 2.6762999322 2.3432883371 -1.4473173079
| 26> H 1.4319232238 3.5439643036 0.683578602
| 27> H 1.6889658564 2.263019948 1.8689347398
| 28> H 3.0789368025 3.1247611102 1.1825963272
| 29> H 3.8330530156 0.3001903807 -0.450548169
| 30> H 3.4220916052 0.5712986773 1.2472483712
| 31> H 3.0888836819 -2.4135443095 0.7393402236
| 32> H 1.099207073 -3.8705768363 0.5061901634
| 33> H -1.066987424 -2.9154357492 -0.1750247936
| 34> H -3.5745868423 0.5119167191 -1.4000644061
| 35> H -5.0905514494 1.5426308129 0.3045144697
| 36> H -4.7269694675 0.1215281127 1.3089202853
| 37> H -5.6856294696 -0.0648375162 -0.1773319922
| 38> H 3.6781134164 2.7337180947 -1.2973354756
| 39> H 2.0157955996 3.1550345511 -1.7397550523
| 40> H 2.6920241274 1.6059118291 -2.2464543359
| 41> *
| 42>
| 43>                          ****END OF INPUT****

CARTESIAN COORDINATES (ANGSTROEM)
---------------------------------
  C      2.090361    2.728807    0.971569
  C      2.169759    1.703375   -0.156910
  C      3.008798    0.463781    0.244103
  C      2.012942   -0.653334    0.181316
  C      2.139994   -2.000168    0.437584
  C      1.022477   -2.814379    0.305430
  C     -0.196455   -2.285252   -0.079958
  C     -0.327039   -0.928082   -0.344547
  C      0.785917   -0.112361   -0.201828
  O      0.816542    1.221558   -0.407273
  O     -1.540896   -0.380405   -0.776662
  C     -2.548265   -0.294489    0.133064
  O     -2.447045   -0.660057    1.290473
  N     -3.635669    0.234782   -0.432089
  C     -4.864307    0.477055    0.289688
  C      2.676300    2.343288   -1.447317
  H      1.431923    3.543964    0.683579
  H      1.688966    2.263020    1.868935
  H      3.078937    3.124761    1.182596
  H      3.833053    0.300190   -0.450548
  H      3.422092    0.571299    1.247248
  H      3.088884   -2.413544    0.739340
  H      1.099207   -3.870577    0.506190
  H     -1.066987   -2.915436   -0.175025
  H     -3.574587    0.511917   -1.400064
  H     -5.090551    1.542631    0.304514
  H     -4.726969    0.121528    1.308920
  H     -5.685629   -0.064838   -0.177332
  H      3.678113    2.733718   -1.297335
  H      2.015796    3.155035   -1.739755
  H      2.692024    1.605912   -2.246454

 Total Charge           Charge          ....    0
 Multiplicity           Mult            ....    1
 Number of Electrons    NEL             ....  118
 Basis Dimension        Dim             ....  399

ORBITAL ENERGIES
----------------

  NO   OCC          E(Eh)            E(eV)
   0   2.0000     -19.009524      -517.2755
   1   2.0000     -18.988071      -516.6917
   2   2.0000     -18.933705      -515.2123
   3   2.0000     -14.191461      -386.1693
   4   2.0000     -10.184969      -277.1471
   5   2.0000     -10.100973      -274.8614
   6   2.0000     -10.100066      -274.8368
   7   2.0000     -10.095847      -274.7220
   8   2.0000     -10.056735      -273.6577
   9   2.0000     -10.044236      -273.3176
  10   2.0000     -10.038498      -273.1614
  11   2.0000     -10.035973      -273.0927
  12   2.0000     -10.035157      -273.0705
  13   2.0000     -10.032529      -272.9990
  14   2.0000     -10.014970      -272.5212
  15   2.0000     -10.014968      -272.5211
  16   2.0000      -1.087645       -29.5963
  17   2.0000      -1.045044       -28.4371
  18   2.0000      -0.993424       -27.0324
  19   2.0000      -0.903244       -24.5785
  20   2.0000      -0.830144       -22.5894
  21   2.0000      -0.779577       -21.2134
  22   2.0000      -0.739461       -20.1218
  23   2.0000      -0.722732       -19.6665
  24   2.0000      -0.678001       -18.4494
  25   2.0000      -0.657161       -17.8822
  26   2.0000      -0.655034       -17.8244
  27   2.0000      -0.600183       -16.3318
  28   2.0000      -0.582494       -15.8505
  29   2.0000      -0.554030       -15.0759
  30   2.0000      -0.543103       -14.7786
  31   2.0000      -0.528976       -14.3942
  32   2.0000      -0.482535       -13.1304
  33   2.0000      -0.464678       -12.6445
  34   2.0000      -0.452797       -12.3212
  35   2.0000      -0.445694       -12.1279
  36   2.0000      -0.440857       -11.9963
  37   2.0000      -0.435433       -11.8487
  38   2.0000      -0.420058       -11.4304
  39   2.0000      -0.404446       -11.0055
  40   2.0000      -0.397459       -10.8154
  41   2.0000      -0.386568       -10.5191
  42   2.0000      -0.379850       -10.3363
  43   2.0000      -0.376168       -10.2360
  44   2.0000      -0.369477       -10.0540
  45   2.0000      -0.358571        -9.7572
  46   2.0000      -0.355884        -9.6841
  47   2.0000      -0.346965        -9.4414
  48   2.0000      -0.337841        -9.1931
  49   2.0000      -0.336305        -9.1513
  50   2.0000      -0.324475        -8.8294
  51   2.0000      -0.319154        -8.6846
  52   2.0000      -0.296413        -8.0658
  53   2.0000      -0.292123        -7.9491
  54   2.0000      -0.288334        -7.8460
  55   2.0000      -0.264206        -7.1894
  56   2.0000      -0.238230        -6.4826
  57   2.0000      -0.230537        -6.2732
  58   2.0000      -0.199803        -5.4369
  59   0.0000      -0.036645        -0.9972
  60   0.0000      -0.019687        -0.5357
  61   0.0000       0.017536         0.4772
  62   0.0000       0.048579         1.3219
  63   0.0000       0.075150         2.0449

MULLIKEN ATOMIC CHARGES
-----------------------
   0 C :   -0.536554
   1 C :    0.348357
   2 C :   -0.457101
   3 C :    0.194306
   4 C :   -0.295625
   5 C :   -0.186795
   6 C :   -0.268412
   7 C :    0.005925
   8 C :    0.084487
   9 O :   -0.223540
  10 O :   -0.174248
  11 C :    0.387487
  12 O :   -0.575611
  13 N :   -0.190034
  14 C :   -0.406255
  15 C :   -0.536700
  16 H :    0.172484
  17 H :    0.169095
  18 H :    0.181507
  19 H :    0.198733
  20 H :    0.197346
  21 H :    0.182493
  22 H :    0.179898
  23 H :    0.190449
  24 H :    0.307612
  25 H :    0.170714
  26 H :    0.186559
  27 H :    0.170798
  28 H :    0.180969
  29 H :    0.172668
  30 H :    0.168989
Sum of atomic charges:    0.0000000

LOEWDIN ATOMIC CHARGES
----------------------
   0 C :   -0.372321
   1 C :    0.107371
   2 C :   -0.212818
   3 C :   -0.048967
   4 C :   -0.156112
   5 C :   -0.186469
   6 C :   -0.129296
   7 C :    0.192889
   8 C :    0.228828
   9 O :   -0.653072
  10 O :   -0.492587
  11 C :    0.459711
  12 O :   -0.483138
  13 N :   -0.579031
  14 C :   -0.103571
  15 C :   -0.372245
  16 H :    0.167432
  17 H :    0.168086
  18 H :    0.171324
  19 H :    0.186599
  20 H :    0.186618
  21 H :    0.183270
  22 H :    0.179325
  23 H :    0.193446
  24 H :    0.295344
  25 H :    0.181092
  26 H :    0.199892
  27 H :    0.181604
  28 H :    0.171383
  29 H :    0.167472
  30 H :    0.167940

  Mayer bond orders larger than 0.100000
B(  0-C ,  1-C ) :   0.9483 B(  0-C , 16-H ) :   0.9711 B(  0-C , 17-H ) :   0.9628
B(  0-C , 18-H ) :   0.9682 B(  1-C ,  2-C ) :   0.8848 B(  1-C ,  8-C ) :   0.1247
B(  1-C ,  9-O ) :   0.6377 B(  1-C , 15-C ) :   0.9516 B(  2-C ,  3-C ) :   0.6851
B(  2-C , 19-H ) :   0.9699 B(  2-C , 20-H ) :   0.9518 B(  3-C ,  4-C ) :   1.2875
B(  3-C ,  8-C ) :   1.3532 B(  4-C ,  5-C ) :   1.3696 B(  4-C , 21-H ) :   0.9590
B(  5-C ,  6-C ) :   1.3551 B(  5-C , 22-H ) :   0.9669 B(  6-C ,  7-C ) :   1.2657
B(  6-C , 23-H ) :   0.9507 B(  7-C ,  8-C ) :   1.6280 B(  7-C , 10-O ) :   0.8348
B(  8-C ,  9-O ) :   1.1090 B( 10-O , 11-C ) :   1.0754 B( 11-C , 12-O ) :   1.7461
B( 11-C , 13-N ) :   1.3399 B( 13-N , 14-C ) :   0.8883 B( 13-N , 24-H ) :   0.8859
B( 14-C , 25-H ) :   0.9532 B( 14-C , 26-H ) :   0.9595 B( 14-C , 27-H ) :   0.9547
B( 15-C , 28-H ) :   0.9676 B( 15-C , 29-H ) :   0.9710 B( 15-C , 30-H ) :   0.9635

Dispersion correction           -0.011882458
FINAL SINGLE POINT ENERGY      -746.607325731688

DIPOLE MOMENT
-------------

Method             : SCF
Type of density    : Electron Density
Multiplicity       :   1
Irrep              :   0
Energy             :  -746.6154367180151894 Eh
Relativity type    :
Basis              : AO
                                X                 Y                 Z
Electronic contribution:     -4.956522596      -8.637952367      -1.370203606
Nuclear contribution   :      5.453511055       9.582293398       0.332078380
                        -----------------------------------------
Total Dipole Moment    :      0.496988459       0.944341030      -1.038125226
                        -----------------------------------------
Magnitude (a.u.)       :      1.488785242
Magnitude (Debye)      :      3.784191350

Rotational constants in cm-1:             0.027726             0.011810             0.009204
Rotational constants in MHz :           831.207135           354.043132           275.917010

                             ****ORCA TERMINATED NORMALLY****
TOTAL RUN TIME: 0 days 0 hours 1 minutes 35 seconds 927 msec
