                         Program Version 6.0.0  -   RELEASE  -
|  1> ! r2scan-3c def2/J RI DEFGRID2 scfconv6 printgap
|  2> %output
|  3>     printlevel normal
|  4> end
|  5> * xyz 0 1
|  6> C -3.6979085929 -0.010143867 1.6263202105
|  7> N -2.5061368221 0.0878016154 0.812356285
|  8> C -2.4575929145 -0.3421250574 -0.4535537257
|  9> O -3.3909940693 -0.8507938655 -1.0493427737
| 10> O -1.2759755515 -0.2222022944 -1.1012123278
| 11> C -0.2056575597 0.4962407973 -0.5583866072
| 12> C -0.2771046418 1.8582572678 -0.4115719508
| 13> C 0.8303311692 2.5705785611 0.0724300144
| 14> C 1.9848987158 1.9173359485 0.4009815447
| 15> C 2.0886931186 0.5178222721 0.2555536994
| 16> C 0.9765484752 -0.2167551731 -0.235727033
| 17> C 1.0803300341 -1.6151760706 -0.3839336442
| 18> C 2.2389691759 -2.2619289712 -0.0555871194
| 19> C 3.3404164467 -1.5408868319 0.4323704238
| 20> C 3.267878452 -0.1842412193 0.583620392
| 21> H -3.5147801575 -0.655399434 2.4845718698
| 22> H -4.4873213743 -0.4382292407 1.0120765125
| 23> H -3.9967362619 0.9796399414 1.9685224144
| 24> H -1.672913582 0.4616637366 1.2433500402
| 25> H -1.1855671272 2.3766388754 -0.6786691683
| 26> H 0.7547227557 3.6409749953 0.1778087687
| 27> H 2.8375641191 2.4635649605 0.7735107054
| 28> H 0.2280891643 -2.1569055614 -0.7672957591
| 29> H 2.3127126576 -3.3323516886 -0.1711287543
| 30> H 4.2464377474 -2.0696127755 0.685580654
| 31> H 4.113599194 0.3737042994 0.9559354244
| 32> *
| 33>
| 34>                          ****END OF INPUT****

CARTESIAN COORDINATES (ANGSTROEM)
---------------------------------
  C     -3.697909   -0.010144    1.626320
  N     -2.506137    0.087802    0.812356
  C     -2.457593   -0.342125   -0.453554
  O     -3.390994   -0.850794   -1.049343
  O     -1.275976   -0.222202   -1.101212
  C     -0.205658    0.496241   -0.558387
  C     -0.277105    1.858257   -0.411572
  C      0.830331    2.570579    0.072430
  C      1.984899    1.917336    0.400982
  C      2.088693    0.517822    0.255554
  C      0.976548   -0.216755   -0.235727
  C      1.080330   -1.615176   -0.383934
  C      2.238969   -2.261929   -0.055587
  C      3.340416   -1.540887    0.432370
  C      3.267878   -0.184241    0.583620
  H     -3.514780   -0.655399    2.484572
  H     -4.487321   -0.438229    1.012077
  H     -3.996736    0.979640    1.968522
  H     -1.672914    0.461664    1.243350
  H     -1.185567    2.376639   -0.678669
  H      0.754723    3.640975    0.177809
  H      2.837564    2.463565    0.773511
  H      0.228089   -2.156906   -0.767296
  H      2.312713   -3.332352   -0.171129
  H      4.246438   -2.069613    0.685581
  H      4.113599    0.373704    0.955935

 Total Charge           Charge          ....    0
 Multiplicity           Mult            ....    1
 Number of Electrons    NEL             ....  106
 Basis Dimension        Dim             ....  355

ORBITAL ENERGIES
----------------

  NO   OCC          E(Eh)            E(eV)
   0   2.0000     -19.006171      -517.1842
   1   2.0000     -18.908623      -514.5298
   2   2.0000     -14.195889      -386.2898
   3   2.0000     -10.173810      -276.8434
   4   2.0000     -10.114229      -275.2222
   5   2.0000     -10.069291      -273.9993
   6   2.0000     -10.062092      -273.8034
   7   2.0000     -10.061671      -273.7920
   8   2.0000     -10.054114      -273.5864
   9   2.0000     -10.053705      -273.5752
  10   2.0000     -10.050011      -273.4747
  11   2.0000     -10.049271      -273.4546
  12   2.0000     -10.048260      -273.4271
  13   2.0000     -10.047481      -273.4059
  14   2.0000     -10.046945      -273.3913
  15   2.0000      -1.080707       -29.4075
  16   2.0000      -0.979545       -26.6548
  17   2.0000      -0.900663       -24.5083
  18   2.0000      -0.860590       -23.4178
  19   2.0000      -0.808497       -22.0003
  20   2.0000      -0.758368       -20.6362
  21   2.0000      -0.730077       -19.8664
  22   2.0000      -0.707410       -19.2496
  23   2.0000      -0.686943       -18.6927
  24   2.0000      -0.624580       -16.9957
  25   2.0000      -0.603069       -16.4103
  26   2.0000      -0.598969       -16.2988
  27   2.0000      -0.562541       -15.3075
  28   2.0000      -0.540733       -14.7141
  29   2.0000      -0.504089       -13.7169
  30   2.0000      -0.487134       -13.2556
  31   2.0000      -0.478473       -13.0199
  32   2.0000      -0.459576       -12.5057
  33   2.0000      -0.446479       -12.1493
  34   2.0000      -0.427014       -11.6196
  35   2.0000      -0.411987       -11.2107
  36   2.0000      -0.408851       -11.1254
  37   2.0000      -0.402611       -10.9556
  38   2.0000      -0.390755       -10.6330
  39   2.0000      -0.389043       -10.5864
  40   2.0000      -0.379965       -10.3394
  41   2.0000      -0.372383       -10.1330
  42   2.0000      -0.366060        -9.9610
  43   2.0000      -0.354129        -9.6363
  44   2.0000      -0.327820        -8.9204
  45   2.0000      -0.324152        -8.8206
  46   2.0000      -0.317704        -8.6452
  47   2.0000      -0.286845        -7.8054
  48   2.0000      -0.269287        -7.3277
  49   2.0000      -0.249430        -6.7873
  50   2.0000      -0.239073        -6.5055
  51   2.0000      -0.234290        -6.3754
  52   2.0000      -0.213001        -5.7961
  53   0.0000      -0.081746        -2.2244
  54   0.0000      -0.052283        -1.4227
  55   0.0000      -0.014232        -0.3873
  56   0.0000       0.026787         0.7289
  57   0.0000       0.047630         1.2961

MULLIKEN ATOMIC CHARGES
-----------------------
   0 C :   -0.397567
   1 N :   -0.173357
   2 C :    0.319975
   3 O :   -0.446610
   4 O :   -0.137643
   5 C :    0.158819
   6 C :   -0.182860
   7 C :   -0.137037
   8 C :   -0.256998
   9 C :    0.171632
  10 C :    0.011909
  11 C :   -0.244405
  12 C :   -0.141334
  13 C :   -0.135466
  14 C :   -0.216558
  15 H :    0.145845
  16 H :    0.199601
  17 H :    0.144155
  18 H :    0.249277
  19 H :    0.161349
  20 H :    0.149593
  21 H :    0.146513
  22 H :    0.170627
  23 H :    0.148270
  24 H :    0.147349
  25 H :    0.144921
Sum of atomic charges:    0.0000000

LOEWDIN ATOMIC CHARGES
----------------------
   0 C :   -0.108484
   1 N :   -0.624446
   2 C :    0.452774
   3 O :   -0.395712
   4 O :   -0.488383
   5 C :    0.200057
   6 C :   -0.135345
   7 C :   -0.156393
   8 C :   -0.146024
   9 C :   -0.054003
  10 C :   -0.025452
  11 C :   -0.121919
  12 C :   -0.155316
  13 C :   -0.155597
  14 C :   -0.141534
  15 H :    0.170383
  16 H :    0.207187
  17 H :    0.169306
  18 H :    0.279561
  19 H :    0.185043
  20 H :    0.171420
  21 H :    0.172572
  22 H :    0.188463
  23 H :    0.170408
  24 H :    0.169335
  25 H :    0.172098

  Mayer bond orders larger than 0.100000
B(  0-C ,  1-N ) :   0.8965 B(  0-C , 15-H ) :   0.9604 B(  0-C , 16-H ) :   0.9541
B(  0-C , 17-H ) :   0.9636 B(  1-N ,  2-C ) :   1.1604 B(  1-N , 18-H ) :   0.9144
B(  2-C ,  3-O ) :   1.9428 B(  2-C ,  4-O ) :   1.0391 B(  4-O ,  5-C ) :   0.8579
B(  5-C ,  6-C ) :   1.5007 B(  5-C , 10-C ) :   1.3016 B(  5-C , 11-C ) :  -0.1016
B(  6-C ,  7-C ) :   1.2154 B(  6-C , 19-H ) :   0.9369 B(  7-C ,  8-C ) :   1.4934
B(  7-C , 20-H ) :   0.9582 B(  8-C ,  9-C ) :   1.1742 B(  8-C , 21-H ) :   0.9475
B(  9-C , 10-C ) :   1.4050 B(  9-C , 14-C ) :   1.1849 B( 10-C , 11-C ) :   1.2909
B( 11-C , 12-C ) :   1.4762 B( 11-C , 22-H ) :   0.9587 B( 12-C , 13-C ) :   1.2576
B( 12-C , 23-H ) :   0.9541 B( 13-C , 14-C ) :   1.5112 B( 13-C , 24-H ) :   0.9489
B( 14-C , 25-H ) :   0.9511

Dispersion correction           -0.010931571
FINAL SINGLE POINT ENERGY      -668.974050028391

DIPOLE MOMENT
-------------

Method             : SCF
Type of density    : Electron Density
Multiplicity       :   1
Irrep              :   0
Energy             :  -668.9778436796998449 Eh
Relativity type    :
Basis              : AO
                                X                 Y                 Z
Electronic contribution:      1.503926516      -0.765807393      -5.668115254
Nuclear contribution   :     -0.424554288       1.526652152       7.181765862
                        -----------------------------------------
Total Dipole Moment    :      1.079372228       0.760844758       1.513650609
                        -----------------------------------------
Magnitude (a.u.)       :      2.008747699
Magnitude (Debye)      :      5.105830884

Rotational constants in cm-1:             0.036130             0.013970             0.011604
Rotational constants in MHz :          1083.151175           418.799777           347.888181

                             ****ORCA TERMINATED NORMALLY****
TOTAL RUN TIME: 0 days 0 hours 0 minutes 44 seconds 802 msec
