                         Program Version 6.0.0  -   RELEASE  -
|  1> ! r2scan-3c def2/J RI DEFGRID2 scfconv6 printgap
|  2> %output
|  3>     printlevel normal
|  4> end
|  5> %cpcm
|  6>     smd true
|  7>     smdsolvent "water"
|  8> end
|  9> * xyz 0 1
| 10> C -3.6979085929 -0.010143867 1.6263202105
| 11> N -2.5061368221 0.0878016154 0.812356285
| 12> C -2.4575929145 -0.3421250574 -0.4535537257
| 13> O -3.3909940693 -0.8507938655 -1.0493427737
| 14> O -1.2759755515 -0.2222022944 -1.1012123278
| 15> C -0.2056575597 0.4962407973 -0.5583866072
| 16> C -0.2771046418 1.8582572678 -0.4115719508
| 17> C 0.8303311692 2.5705785611 0.0724300144
| 18> C 1.9848987158 1.9173359485 0.4009815447
| 19> C 2.0886931186 0.5178222721 0.2555536994
| 20> C 0.9765484752 -0.2167551731 -0.235727033
| 21> C 1.0803300341 -1.6151760706 -0.3839336442
| 22> C 2.2389691759 -2.2619289712 -0.0555871194
| 23> C 3.3404164467 -1.5408868319 0.4323704238
| 24> C 3.267878452 -0.1842412193 0.583620392
| 25> H -3.5147801575 -0.655399434 2.4845718698
| 26> H -4.4873213743 -0.4382292407 1.0120765125
| 27> H -3.9967362619 0.9796399414 1.9685224144
| 28> H -1.672913582 0.4616637366 1.2433500402
| 29> H -1.1855671272 2.3766388754 -0.6786691683
| 30> H 0.7547227557 3.6409749953 0.1778087687
| 31> H 2.8375641191 2.4635649605 0.7735107054
| 32> H 0.2280891643 -2.1569055614 -0.7672957591
| 33> H 2.3127126576 -3.3323516886 -0.1711287543
| 34> H 4.2464377474 -2.0696127755 0.685580654
| 35> H 4.113599194 0.3737042994 0.9559354244
| 36> *
| 37>
| 38>                          ****END OF INPUT****

CARTESIAN COORDINATES (ANGSTROEM)
---------------------------------
  C     -3.697909   -0.010144    1.626320
  N     -2.506137    0.087802    0.812356
  C     -2.457593   -0.342125   -0.453554
  O     -3.390994   -0.850794   -1.049343
  O     -1.275976   -0.222202   -1.101212
  C     -0.205658    0.496241   -0.558387
  C     -0.277105    1.858257   -0.411572
  C      0.830331    2.570579    0.072430
  C      1.984899    1.917336    0.400982
  C      2.088693    0.517822    0.255554
  C      0.976548   -0.216755   -0.235727
  C      1.080330   -1.615176   -0.383934
  C      2.238969   -2.261929   -0.055587
  C      3.340416   -1.540887    0.432370
  C      3.267878   -0.184241    0.583620
  H     -3.514780   -0.655399    2.484572
  H     -4.487321   -0.438229    1.012077
  H     -3.996736    0.979640    1.968522
  H     -1.672914    0.461664    1.243350
  H     -1.185567    2.376639   -0.678669
  H      0.754723    3.640975    0.177809
  H      2.837564    2.463565    0.773511
  H      0.228089   -2.156906   -0.767296
  H      2.312713   -3.332352   -0.171129
  H      4.246438   -2.069613    0.685581
  H      4.113599    0.373704    0.955935

 Total Charge           Charge          ....    0
 Multiplicity           Mult            ....    1
 Number of Electrons    NEL             ....  106
 Basis Dimension        Dim             ....  355

ORBITAL ENERGIES
----------------

  NO   OCC          E(Eh)            E(eV)
   0   2.0000     -19.014498      -517.4108
   1   2.0000     -18.931932      -515.1641
   2   2.0000     -14.194124      -386.2417
   3   2.0000     -10.188027      -277.2303
   4   2.0000     -10.109582      -275.0957
   5   2.0000     -10.056745      -273.6579
   6   2.0000     -10.056730      -273.6575
   7   2.0000     -10.054239      -273.5898
   8   2.0000     -10.044955      -273.3371
   9   2.0000     -10.042462      -273.2693
  10   2.0000     -10.040686      -273.2210
  11   2.0000     -10.039566      -273.1905
  12   2.0000     -10.039511      -273.1890
  13   2.0000     -10.038881      -273.1718
  14   2.0000     -10.038160      -273.1522
  15   2.0000      -1.090780       -29.6816
  16   2.0000      -0.998118       -27.1602
  17   2.0000      -0.900885       -24.5143
  18   2.0000      -0.854358       -23.2483
  19   2.0000      -0.800894       -21.7934
  20   2.0000      -0.752625       -20.4800
  21   2.0000      -0.721827       -19.6419
  22   2.0000      -0.701233       -19.0815
  23   2.0000      -0.679305       -18.4848
  24   2.0000      -0.621207       -16.9039
  25   2.0000      -0.594494       -16.1770
  26   2.0000      -0.592673       -16.1275
  27   2.0000      -0.559249       -15.2179
  28   2.0000      -0.534990       -14.5578
  29   2.0000      -0.495633       -13.4869
  30   2.0000      -0.477965       -13.0061
  31   2.0000      -0.471355       -12.8262
  32   2.0000      -0.455652       -12.3989
  33   2.0000      -0.445313       -12.1176
  34   2.0000      -0.418540       -11.3891
  35   2.0000      -0.415852       -11.3159
  36   2.0000      -0.402277       -10.9465
  37   2.0000      -0.399594       -10.8735
  38   2.0000      -0.394846       -10.7443
  39   2.0000      -0.383579       -10.4377
  40   2.0000      -0.373045       -10.1511
  41   2.0000      -0.368700       -10.0328
  42   2.0000      -0.357982        -9.7412
  43   2.0000      -0.349246        -9.5035
  44   2.0000      -0.321413        -8.7461
  45   2.0000      -0.316552        -8.6138
  46   2.0000      -0.310280        -8.4432
  47   2.0000      -0.291650        -7.9362
  48   2.0000      -0.270620        -7.3640
  49   2.0000      -0.264395        -7.1946
  50   2.0000      -0.245021        -6.6674
  51   2.0000      -0.237667        -6.4673
  52   2.0000      -0.208273        -5.6674
  53   0.0000      -0.075693        -2.0597
  54   0.0000      -0.045554        -1.2396
  55   0.0000      -0.009019        -0.2454
  56   0.0000       0.015617         0.4250
  57   0.0000       0.055775         1.5177

MULLIKEN ATOMIC CHARGES
-----------------------
   0 C :   -0.410058
   1 N :   -0.193663
   2 C :    0.353703
   3 O :   -0.553101
   4 O :   -0.155902
   5 C :    0.170458
   6 C :   -0.173937
   7 C :   -0.178035
   8 C :   -0.267024
   9 C :    0.116323
  10 C :    0.025068
  11 C :   -0.276157
  12 C :   -0.182583
  13 C :   -0.168888
  14 C :   -0.230718
  15 H :    0.172389
  16 H :    0.186634
  17 H :    0.171948
  18 H :    0.302470
  19 H :    0.193946
  20 H :    0.183871
  21 H :    0.182184
  22 H :    0.189022
  23 H :    0.180144
  24 H :    0.180536
  25 H :    0.181370
Sum of atomic charges:    0.0000000

LOEWDIN ATOMIC CHARGES
----------------------
   0 C :   -0.103739
   1 N :   -0.592906
   2 C :    0.453185
   3 O :   -0.480578
   4 O :   -0.505548
   5 C :    0.194254
   6 C :   -0.123999
   7 C :   -0.156974
   8 C :   -0.145327
   9 C :   -0.063995
  10 C :   -0.030488
  11 C :   -0.137129
  12 C :   -0.161938
  13 C :   -0.164229
  14 C :   -0.144118
  15 H :    0.182275
  16 H :    0.200845
  17 H :    0.182011
  18 H :    0.294663
  19 H :    0.196339
  20 H :    0.183637
  21 H :    0.185360
  22 H :    0.192088
  23 H :    0.180870
  24 H :    0.180387
  25 H :    0.185053

  Mayer bond orders larger than 0.100000
B(  0-C ,  1-N ) :   0.8880 B(  0-C , 15-H ) :   0.9520 B(  0-C , 16-H ) :   0.9556
B(  0-C , 17-H ) :   0.9548 B(  1-N ,  2-C ) :   1.2186 B(  1-N , 18-H ) :   0.8963
B(  2-C ,  3-O ) :   1.8539 B(  2-C ,  4-O ) :   1.0638 B(  4-O ,  5-C ) :   0.8444
B(  5-C ,  6-C ) :   1.4856 B(  5-C , 10-C ) :   1.2790 B(  5-C , 11-C ) :  -0.1013
B(  6-C ,  7-C ) :   1.2005 B(  6-C , 19-H ) :   0.9376 B(  7-C ,  8-C ) :   1.4637
B(  7-C , 20-H ) :   0.9676 B(  8-C ,  9-C ) :   1.1777 B(  8-C , 21-H ) :   0.9557
B(  9-C , 10-C ) :   1.3439 B(  9-C , 14-C ) :   1.1885 B( 10-C , 11-C ) :   1.2363
B( 11-C , 12-C ) :   1.4608 B( 11-C , 22-H ) :   0.9689 B( 12-C , 13-C ) :   1.2334
B( 12-C , 23-H ) :   0.9625 B( 13-C , 14-C ) :   1.4764 B( 13-C , 24-H ) :   0.9589
B( 14-C , 25-H ) :   0.9570

Dispersion correction           -0.010931571
FINAL SINGLE POINT ENERGY      -668.989571809886

DIPOLE MOMENT
-------------

Method             : SCF
Type of density    : Electron Density
Multiplicity       :   1
Irrep              :   0
Energy             :  -668.9933654611941165 Eh
Relativity type    :
Basis              : AO
                                X                 Y                 Z
Electronic contribution:      1.933580547      -0.264089662      -4.911806121
Nuclear contribution   :     -0.424554288       1.526652152       7.181765862
                        -----------------------------------------
Total Dipole Moment    :      1.509026259       1.262562490       2.269959742
                        -----------------------------------------
Magnitude (a.u.)       :      3.003987603
Magnitude (Debye)      :      7.635529681

Rotational constants in cm-1:             0.036130             0.013970             0.011604
Rotational constants in MHz :          1083.151175           418.799777           347.888181

                             ****ORCA TERMINATED NORMALLY****
TOTAL RUN TIME: 0 days 0 hours 0 minutes 56 seconds 729 msec
