                         Program Version 6.0.0  -   RELEASE  -
|  1> ! pbe def2-sv(p) def2/J RI DEFGRID1 loosescf d4 GCP(DFT/SV(P)) printgap
|  2> %output
|  3>     printlevel normal
|  4> end
|  5> * xyz 0 1
|  6> C 3.3025034066 -0.3772186335 0.7973878429
|  7> C 1.9373311727 -0.2429738498 0.219837693
|  8> C 1.3468016123 0.9494846743 0.0444670276
|  9> C 0.0095481071 1.1167695705 -0.4911675995
| 10> O -0.4612179244 2.2289502089 -0.717872419
| 11> C -0.7939061301 -0.1426028429 -0.7597717188
| 12> H -1.4621912424 0.1024845603 -1.592230429
| 13> C 0.1476794205 -1.2691216418 -1.1901931269
| 14> C 1.2440137524 -1.5119068605 -0.1573641059
| 15> C -1.682860917 -0.5479062068 0.4533553874
| 16> C -1.5696135589 0.4092134598 1.6393766976
| 17> C -3.1428429392 -0.6570171147 0.0167999142
| 18> H 3.6716168454 0.5735472819 1.1699383535
| 19> H 3.9874775509 -0.7454745968 0.034808844
| 20> H 3.2949043954 -1.1049944542 1.6063209656
| 21> H 1.8595318096 1.8674200948 0.2991466257
| 22> H -0.4272365245 -2.1818616218 -1.3534144659
| 23> H 0.6120812599 -0.9900262118 -2.13915473
| 24> H 0.8187848524 -1.9457565098 0.7521392687
| 25> H 1.9704754529 -2.2282929472 -0.5439243039
| 26> H -1.3617565437 -1.5368073119 0.7926866895
| 27> H -0.5492777868 0.4543827311 2.0139096136
| 28> H -2.2180961458 0.0751500535 2.4462611396
| 29> H -1.8723066911 1.4148372298 1.3525361889
| 30> H -3.2472517853 -1.3602690294 -0.8059756173
| 31> H -3.5127095592 0.3141019694 -0.306389805
| 32> H -3.7601191599 -1.0004409948 0.8437274479
| 33> *
| 34>
| 35>                          ****END OF INPUT****

CARTESIAN COORDINATES (ANGSTROEM)
---------------------------------
  C      3.302503   -0.377219    0.797388
  C      1.937331   -0.242974    0.219838
  C      1.346802    0.949485    0.044467
  C      0.009548    1.116770   -0.491168
  O     -0.461218    2.228950   -0.717872
  C     -0.793906   -0.142603   -0.759772
  H     -1.462191    0.102485   -1.592230
  C      0.147679   -1.269122   -1.190193
  C      1.244014   -1.511907   -0.157364
  C     -1.682861   -0.547906    0.453355
  C     -1.569614    0.409213    1.639377
  C     -3.142843   -0.657017    0.016800
  H      3.671617    0.573547    1.169938
  H      3.987478   -0.745475    0.034809
  H      3.294904   -1.104994    1.606321
  H      1.859532    1.867420    0.299147
  H     -0.427237   -2.181862   -1.353414
  H      0.612081   -0.990026   -2.139155
  H      0.818785   -1.945757    0.752139
  H      1.970475   -2.228293   -0.543924
  H     -1.361757   -1.536807    0.792687
  H     -0.549278    0.454383    2.013910
  H     -2.218096    0.075150    2.446261
  H     -1.872307    1.414837    1.352536
  H     -3.247252   -1.360269   -0.805976
  H     -3.512710    0.314102   -0.306390
  H     -3.760119   -1.000441    0.843727

 Total Charge           Charge          ....    0
 Multiplicity           Mult            ....    1
 Number of Electrons    NEL             ....   84
 Basis Dimension        Dim             ....  186

ORBITAL ENERGIES
----------------

  NO   OCC          E(Eh)            E(eV)
   0   2.0000     -18.720803      -509.4189
   1   2.0000      -9.958760      -270.9916
   2   2.0000      -9.922405      -270.0024
   3   2.0000      -9.902754      -269.4676
   4   2.0000      -9.902034      -269.4480
   5   2.0000      -9.895765      -269.2775
   6   2.0000      -9.894658      -269.2473
   7   2.0000      -9.892551      -269.1900
   8   2.0000      -9.888170      -269.0708
   9   2.0000      -9.873434      -268.6698
  10   2.0000      -9.869799      -268.5709
  11   2.0000      -0.915561       -24.9137
  12   2.0000      -0.775262       -21.0959
  13   2.0000      -0.731344       -19.9009
  14   2.0000      -0.685670       -18.6580
  15   2.0000      -0.655625       -17.8405
  16   2.0000      -0.623809       -16.9747
  17   2.0000      -0.609939       -16.5973
  18   2.0000      -0.552891       -15.0449
  19   2.0000      -0.521924       -14.2023
  20   2.0000      -0.507846       -13.8192
  21   2.0000      -0.454259       -12.3610
  22   2.0000      -0.434193       -11.8150
  23   2.0000      -0.420140       -11.4326
  24   2.0000      -0.405979       -11.0473
  25   2.0000      -0.395722       -10.7681
  26   2.0000      -0.392831       -10.6895
  27   2.0000      -0.376070       -10.2334
  28   2.0000      -0.370243       -10.0748
  29   2.0000      -0.358133        -9.7453
  30   2.0000      -0.347026        -9.4431
  31   2.0000      -0.346444        -9.4272
  32   2.0000      -0.339524        -9.2389
  33   2.0000      -0.329757        -8.9731
  34   2.0000      -0.320229        -8.7139
  35   2.0000      -0.306286        -8.3345
  36   2.0000      -0.299702        -8.1553
  37   2.0000      -0.288429        -7.8486
  38   2.0000      -0.276754        -7.5309
  39   2.0000      -0.274977        -7.4825
  40   2.0000      -0.231438        -6.2978
  41   2.0000      -0.181248        -4.9320
  42   0.0000      -0.079253        -2.1566
  43   0.0000       0.020829         0.5668
  44   0.0000       0.029552         0.8042
  45   0.0000       0.047844         1.3019
  46   0.0000       0.056567         1.5393

MULLIKEN ATOMIC CHARGES
-----------------------
   0 C :   -0.216274
   1 C :   -0.074360
   2 C :   -0.143154
   3 C :    0.049140
   4 O :   -0.180391
   5 C :   -0.081771
   6 H :    0.068861
   7 C :   -0.134258
   8 C :   -0.101677
   9 C :   -0.194479
  10 C :   -0.203362
  11 C :   -0.253763
  12 H :    0.112947
  13 H :    0.122775
  14 H :    0.116443
  15 H :    0.044445
  16 H :    0.082918
  17 H :    0.096284
  18 H :    0.108342
  19 H :    0.094221
  20 H :    0.070646
  21 H :    0.095064
  22 H :    0.098363
  23 H :    0.114187
  24 H :    0.099660
  25 H :    0.111831
  26 H :    0.097362
Sum of atomic charges:   -0.0000000

LOEWDIN ATOMIC CHARGES
----------------------
   0 C :   -0.321739
   1 C :   -0.014980
   2 C :   -0.172106
   3 C :    0.040833
   4 O :   -0.147493
   5 C :   -0.152740
   6 H :    0.130944
   7 C :   -0.208471
   8 C :   -0.216605
   9 C :   -0.139132
  10 C :   -0.337654
  11 C :   -0.327320
  12 H :    0.129664
  13 H :    0.138831
  14 H :    0.134843
  15 H :    0.128209
  16 H :    0.118333
  17 H :    0.122389
  18 H :    0.136300
  19 H :    0.127849
  20 H :    0.111824
  21 H :    0.117604
  22 H :    0.117611
  23 H :    0.127667
  24 H :    0.115714
  25 H :    0.123029
  26 H :    0.116595

  Mayer bond orders larger than 0.100000
B(  0-C ,  1-C ) :   1.1283 B(  0-C , 12-H ) :   0.9421 B(  0-C , 13-H ) :   0.9213
B(  0-C , 14-H ) :   0.9290 B(  1-C ,  2-C ) :   1.7045 B(  1-C ,  8-C ) :   1.0748
B(  2-C ,  3-C ) :   1.0569 B(  2-C , 15-H ) :   0.9358 B(  3-C ,  4-O ) :   2.0856
B(  3-C ,  5-C ) :   1.0053 B(  5-C ,  6-H ) :   0.8584 B(  5-C ,  7-C ) :   1.0601
B(  5-C ,  9-C ) :   0.9662 B(  7-C ,  8-C ) :   1.1227 B(  7-C , 16-H ) :   0.9062
B(  7-C , 17-H ) :   0.9220 B(  8-C , 18-H ) :   0.8652 B(  8-C , 19-H ) :   0.9063
B(  9-C , 10-C ) :   1.1824 B(  9-C , 11-C ) :   1.1087 B(  9-C , 20-H ) :   0.8947
B( 10-C , 21-H ) :   0.9302 B( 10-C , 22-H ) :   0.9443 B( 10-C , 23-H ) :   0.9214
B( 11-C , 24-H ) :   0.9486 B( 11-C , 25-H ) :   0.9482 B( 11-C , 26-H ) :   0.9472

Dispersion correction           -0.029010823
FINAL SINGLE POINT ENERGY      -464.839250750446

DIPOLE MOMENT
-------------

Method             : SCF
Type of density    : Electron Density
Multiplicity       :   1
Irrep              :   0
Energy             :  -464.9238464257831538 Eh
Relativity type    :
Basis              : AO
                                X                 Y                 Z
Electronic contribution:      2.766130573       6.419965554      -3.922870703
Nuclear contribution   :     -2.067121775      -7.746224169       4.277137878
                        -----------------------------------------
Total Dipole Moment    :      0.699008798      -1.326258615       0.354267176
                        -----------------------------------------
Magnitude (a.u.)       :      1.540480589
Magnitude (Debye)      :      3.915590479

Rotational constants in cm-1:             0.056435             0.027340             0.023985
Rotational constants in MHz :          1691.884698           819.629229           719.050859

                             ****ORCA TERMINATED NORMALLY****
TOTAL RUN TIME: 0 days 0 hours 0 minutes 10 seconds 884 msec
