                         Program Version 6.0.0  -   RELEASE  -
|  1> ! pbe def2-sv(p) def2/J RI DEFGRID1 loosescf d4 GCP(DFT/SV(P)) printgap
|  2> %output
|  3>     printlevel normal
|  4> end
|  5> * xyz 0 1
|  6> C -3.0703572994 -0.3737266298 1.0227105164
|  7> C -2.3039121544 -0.2531363745 -0.2936239085
|  8> H -3.0264118324 -0.3673164066 -1.1080562625
|  9> C -1.2492541619 -1.3496286668 -0.4496834334
| 10> C -0.1343587708 -1.2119672786 0.5796637472
| 11> C 0.5467393852 0.1698897888 0.5124290635
| 12> H 0.3904200408 0.6781697706 1.4730648083
| 13> C -0.1283350243 1.0875529494 -0.4831939721
| 14> O 0.4916325184 1.8202014233 -1.2321170839
| 15> C -1.6335941676 1.1275624102 -0.4335003132
| 16> C 2.0713874553 0.120066633 0.2858485641
| 17> C 2.781712851 -0.5149979381 1.4791629586
| 18> C 2.4503252798 -0.5879455656 -1.013842856
| 19> H -3.4950123207 -1.3697667524 1.1215531659
| 20> H -2.4231916103 -0.1871107785 1.8750185387
| 21> H -3.8837816436 0.3473457209 1.0480994305
| 22> H -1.7198754166 -2.3287394135 -0.3484666096
| 23> H -0.8204247651 -1.2825726024 -1.4532759816
| 24> H -0.5376385046 -1.3825596165 1.5769506904
| 25> H 0.6050435081 -1.9900994313 0.3976511303
| 26> H -1.8894614671 1.7526527025 0.4254580021
| 27> H -1.9783299739 1.6523497736 -1.326099317
| 28> H 2.4048241264 1.161193829 0.1985537756
| 29> H 3.8582587894 -0.4778855167 1.3331749911
| 30> H 2.4908166457 -1.5553894726 1.5977792918
| 31> H 2.542819122 0.0172459806 2.3968918498
| 32> H 1.9637676866 -0.1073743073 -1.8594037836
| 33> H 2.1685262745 -1.6375321403 -0.9971426117
| 34> H 3.5255617315 -0.5290335531 -1.1645063434
| 35> *
| 36>
| 37>                          ****END OF INPUT****

CARTESIAN COORDINATES (ANGSTROEM)
---------------------------------
  C     -3.070357   -0.373727    1.022711
  C     -2.303912   -0.253136   -0.293624
  H     -3.026412   -0.367316   -1.108056
  C     -1.249254   -1.349629   -0.449683
  C     -0.134359   -1.211967    0.579664
  C      0.546739    0.169890    0.512429
  H      0.390420    0.678170    1.473065
  C     -0.128335    1.087553   -0.483194
  O      0.491633    1.820201   -1.232117
  C     -1.633594    1.127562   -0.433500
  C      2.071387    0.120067    0.285849
  C      2.781713   -0.514998    1.479163
  C      2.450325   -0.587946   -1.013843
  H     -3.495012   -1.369767    1.121553
  H     -2.423192   -0.187111    1.875019
  H     -3.883782    0.347346    1.048099
  H     -1.719875   -2.328739   -0.348467
  H     -0.820425   -1.282573   -1.453276
  H     -0.537639   -1.382560    1.576951
  H      0.605044   -1.990099    0.397651
  H     -1.889461    1.752653    0.425458
  H     -1.978330    1.652350   -1.326099
  H      2.404824    1.161194    0.198554
  H      3.858259   -0.477886    1.333175
  H      2.490817   -1.555389    1.597779
  H      2.542819    0.017246    2.396892
  H      1.963768   -0.107374   -1.859404
  H      2.168526   -1.637532   -0.997143
  H      3.525562   -0.529034   -1.164506

 Total Charge           Charge          ....    0
 Multiplicity           Mult            ....    1
 Number of Electrons    NEL             ....   86
 Basis Dimension        Dim             ....  190

ORBITAL ENERGIES
----------------

  NO   OCC          E(Eh)            E(eV)
   0   2.0000     -18.732603      -509.7400
   1   2.0000      -9.968941      -271.2687
   2   2.0000      -9.905605      -269.5452
   3   2.0000      -9.899722      -269.3851
   4   2.0000      -9.892878      -269.1989
   5   2.0000      -9.891487      -269.1610
   6   2.0000      -9.890505      -269.1343
   7   2.0000      -9.888826      -269.0886
   8   2.0000      -9.881767      -268.8965
   9   2.0000      -9.871514      -268.6176
  10   2.0000      -9.865633      -268.4575
  11   2.0000      -0.931687       -25.3525
  12   2.0000      -0.766944       -20.8696
  13   2.0000      -0.727513       -19.7966
  14   2.0000      -0.672989       -18.3130
  15   2.0000      -0.655490       -17.8368
  16   2.0000      -0.618078       -16.8188
  17   2.0000      -0.607707       -16.5366
  18   2.0000      -0.563604       -15.3365
  19   2.0000      -0.518118       -14.0987
  20   2.0000      -0.497483       -13.5372
  21   2.0000      -0.449101       -12.2206
  22   2.0000      -0.443429       -12.0663
  23   2.0000      -0.426008       -11.5923
  24   2.0000      -0.416781       -11.3412
  25   2.0000      -0.404093       -10.9959
  26   2.0000      -0.388429       -10.5697
  27   2.0000      -0.374872       -10.2008
  28   2.0000      -0.367562       -10.0019
  29   2.0000      -0.352297        -9.5865
  30   2.0000      -0.348551        -9.4846
  31   2.0000      -0.344002        -9.3608
  32   2.0000      -0.336215        -9.1489
  33   2.0000      -0.331782        -9.0283
  34   2.0000      -0.321786        -8.7563
  35   2.0000      -0.315164        -8.5760
  36   2.0000      -0.301287        -8.1984
  37   2.0000      -0.291548        -7.9334
  38   2.0000      -0.288493        -7.8503
  39   2.0000      -0.274505        -7.4697
  40   2.0000      -0.269490        -7.3332
  41   2.0000      -0.269247        -7.3266
  42   2.0000      -0.188585        -5.1317
  43   0.0000      -0.050235        -1.3670
  44   0.0000       0.024522         0.6673
  45   0.0000       0.039667         1.0794
  46   0.0000       0.051393         1.3985
  47   0.0000       0.063477         1.7273

MULLIKEN ATOMIC CHARGES
-----------------------
   0 C :   -0.268337
   1 C :   -0.185284
   2 H :    0.077573
   3 C :   -0.108564
   4 C :   -0.148344
   5 C :   -0.118826
   6 H :    0.084968
   7 C :   -0.042965
   8 O :   -0.160898
   9 C :   -0.029757
  10 C :   -0.150238
  11 C :   -0.227155
  12 C :   -0.261873
  13 H :    0.101193
  14 H :    0.105922
  15 H :    0.107627
  16 H :    0.085695
  17 H :    0.092119
  18 H :    0.083332
  19 H :    0.103625
  20 H :    0.099987
  21 H :    0.089354
  22 H :    0.077931
  23 H :    0.100165
  24 H :    0.093455
  25 H :    0.092235
  26 H :    0.117586
  27 H :    0.090411
  28 H :    0.099065
Sum of atomic charges:    0.0000000

LOEWDIN ATOMIC CHARGES
----------------------
   0 C :   -0.332894
   1 C :   -0.148848
   2 H :    0.121150
   3 C :   -0.219087
   4 C :   -0.216495
   5 C :   -0.161034
   6 H :    0.140226
   7 C :    0.051041
   8 O :   -0.127827
   9 C :   -0.236671
  10 C :   -0.146445
  11 C :   -0.329403
  12 C :   -0.335081
  13 H :    0.119158
  14 H :    0.115424
  15 H :    0.121477
  16 H :    0.118593
  17 H :    0.120294
  18 H :    0.119091
  19 H :    0.122781
  20 H :    0.143082
  21 H :    0.134006
  22 H :    0.122640
  23 H :    0.119669
  24 H :    0.114559
  25 H :    0.115182
  26 H :    0.123030
  27 H :    0.111657
  28 H :    0.120726

  Mayer bond orders larger than 0.100000
B(  0-C ,  1-C ) :   1.0954 B(  0-C , 13-H ) :   0.9475 B(  0-C , 14-H ) :   0.9448
B(  0-C , 15-H ) :   0.9480 B(  1-C ,  2-H ) :   0.8993 B(  1-C ,  3-C ) :   1.1420
B(  1-C ,  9-C ) :   1.0329 B(  3-C ,  4-C ) :   1.1739 B(  3-C , 16-H ) :   0.9159
B(  3-C , 17-H ) :   0.8917 B(  4-C ,  5-C ) :   1.0381 B(  4-C , 18-H ) :   0.9000
B(  4-C , 19-H ) :   0.9026 B(  5-C ,  6-H ) :   0.8475 B(  5-C ,  7-C ) :   0.9605
B(  5-C , 10-C ) :   1.0567 B(  7-C ,  8-O ) :   2.1616 B(  7-C ,  9-C ) :   1.0733
B(  9-C , 20-H ) :   0.8766 B(  9-C , 21-H ) :   0.8843 B( 10-C , 11-C ) :   1.1122
B( 10-C , 12-C ) :   1.1129 B( 10-C , 22-H ) :   0.8849 B( 11-C , 23-H ) :   0.9504
B( 11-C , 24-H ) :   0.9416 B( 11-C , 25-H ) :   0.9489 B( 12-C , 26-H ) :   0.9423
B( 12-C , 27-H ) :   0.9398 B( 12-C , 28-H ) :   0.9486

Dispersion correction           -0.030616067
FINAL SINGLE POINT ENERGY      -466.026954557048

DIPOLE MOMENT
-------------

Method             : SCF
Type of density    : Electron Density
Multiplicity       :   1
Irrep              :   0
Energy             :  -466.1233175156875177 Eh
Relativity type    :
Basis              : AO
                                X                 Y                 Z
Electronic contribution:     -0.740774911       6.522523289      -4.244562456
Nuclear contribution   :      0.172325500      -7.109083309       4.848217717
                        -----------------------------------------
Total Dipole Moment    :     -0.568449411      -0.586560020       0.603655261
                        -----------------------------------------
Magnitude (a.u.)       :      1.015670746
Magnitude (Debye)      :      2.581629870

Rotational constants in cm-1:             0.059106             0.026103             0.022094
Rotational constants in MHz :          1771.966253           782.560109           662.358954

                             ****ORCA TERMINATED NORMALLY****
TOTAL RUN TIME: 0 days 0 hours 0 minutes 13 seconds 87 msec
