                         Program Version 6.0.0  -   RELEASE  -
|  1> ! pbe def2-sv(p) def2/J RI DEFGRID1 loosescf d4 GCP(DFT/SV(P)) printgap
|  2> %output
|  3>     printlevel normal
|  4> end
|  5> * xyz 0 1
|  6> C -2.4293607968 0.1142354608 -1.4090861262
|  7> C -2.0474286962 0.4694984905 0.0343003636
|  8> H -2.9819403718 0.655784871 0.5766503577
|  9> C -1.152844979 1.702050815 0.1271746744
| 10> C 0.2560483635 1.4866127778 -0.4438071575
| 11> C 0.7640182192 0.0465328085 -0.2750222417
| 12> H 0.456012303 -0.5461731742 -1.146992665
| 13> C 0.0836434674 -0.5913305574 0.9479394271
| 14> C -1.3917730333 -0.7211585534 0.6958425967
| 15> O -2.0172308336 -1.7248512071 0.984302129
| 16> C 2.2750811948 -0.0698559789 -0.2274924517
| 17> C 3.1020877284 0.9035166305 -0.5774940732
| 18> C 2.8157692958 -1.4158227571 0.164901242
| 19> H -1.5465158778 -0.0312228776 -2.0241702753
| 20> H -3.0161803426 -0.8016253373 -1.4207902125
| 21> H -3.0229889479 0.9166115941 -1.8385218737
| 22> H -1.6303427583 2.531662211 -0.3952513072
| 23> H -1.0765255157 1.9839379637 1.1790557062
| 24> H 0.2759122612 1.7492049991 -1.501542057
| 25> H 0.9271169557 2.1681950027 0.0787785716
| 26> H 0.477122498 -1.5809236027 1.1747063718
| 27> H 0.2331345972 0.0464760051 1.8217090052
| 28> H 4.1682042606 0.7506701069 -0.5669426759
| 29> H 2.7786481799 1.8786926606 -0.891356049
| 30> H 2.2461025793 -2.2137391507 -0.3076518354
| 31> H 3.8565059028 -1.5069569155 -0.1337435192
| 32> H 2.7635288825 -1.551673138 1.2441343453
| 33> *
| 34>
| 35>                          ****END OF INPUT****

CARTESIAN COORDINATES (ANGSTROEM)
---------------------------------
  C     -2.429361    0.114235   -1.409086
  C     -2.047429    0.469498    0.034300
  H     -2.981940    0.655785    0.576650
  C     -1.152845    1.702051    0.127175
  C      0.256048    1.486613   -0.443807
  C      0.764018    0.046533   -0.275022
  H      0.456012   -0.546173   -1.146993
  C      0.083643   -0.591331    0.947939
  C     -1.391773   -0.721159    0.695843
  O     -2.017231   -1.724851    0.984302
  C      2.275081   -0.069856   -0.227492
  C      3.102088    0.903517   -0.577494
  C      2.815769   -1.415823    0.164901
  H     -1.546516   -0.031223   -2.024170
  H     -3.016180   -0.801625   -1.420790
  H     -3.022989    0.916612   -1.838522
  H     -1.630343    2.531662   -0.395251
  H     -1.076526    1.983938    1.179056
  H      0.275912    1.749205   -1.501542
  H      0.927117    2.168195    0.078779
  H      0.477122   -1.580924    1.174706
  H      0.233135    0.046476    1.821709
  H      4.168204    0.750670   -0.566943
  H      2.778648    1.878693   -0.891356
  H      2.246103   -2.213739   -0.307652
  H      3.856506   -1.506957   -0.133744
  H      2.763529   -1.551673    1.244134

 Total Charge           Charge          ....    0
 Multiplicity           Mult            ....    1
 Number of Electrons    NEL             ....   84
 Basis Dimension        Dim             ....  186

ORBITAL ENERGIES
----------------

  NO   OCC          E(Eh)            E(eV)
   0   2.0000     -18.738600      -509.9032
   1   2.0000      -9.969634      -271.2875
   2   2.0000      -9.911595      -269.7082
   3   2.0000      -9.905569      -269.5442
   4   2.0000      -9.901699      -269.4389
   5   2.0000      -9.894191      -269.2346
   6   2.0000      -9.893606      -269.2187
   7   2.0000      -9.891832      -269.1704
   8   2.0000      -9.886730      -269.0316
   9   2.0000      -9.885397      -268.9953
  10   2.0000      -9.876046      -268.7409
  11   2.0000      -0.933172       -25.3929
  12   2.0000      -0.773990       -21.0613
  13   2.0000      -0.730488       -19.8776
  14   2.0000      -0.683650       -18.6031
  15   2.0000      -0.661756       -18.0073
  16   2.0000      -0.621218       -16.9042
  17   2.0000      -0.607992       -16.5443
  18   2.0000      -0.557233       -15.1631
  19   2.0000      -0.533706       -14.5229
  20   2.0000      -0.476265       -12.9598
  21   2.0000      -0.460987       -12.5441
  22   2.0000      -0.443636       -12.0719
  23   2.0000      -0.427199       -11.6247
  24   2.0000      -0.414047       -11.2668
  25   2.0000      -0.403320       -10.9749
  26   2.0000      -0.385669       -10.4946
  27   2.0000      -0.376015       -10.2319
  28   2.0000      -0.374111       -10.1801
  29   2.0000      -0.367380        -9.9969
  30   2.0000      -0.355913        -9.6849
  31   2.0000      -0.347100        -9.4451
  32   2.0000      -0.338148        -9.2015
  33   2.0000      -0.324415        -8.8278
  34   2.0000      -0.321955        -8.7609
  35   2.0000      -0.317886        -8.6501
  36   2.0000      -0.310190        -8.4407
  37   2.0000      -0.281567        -7.6618
  38   2.0000      -0.279472        -7.6048
  39   2.0000      -0.279134        -7.5956
  40   2.0000      -0.223574        -6.0838
  41   2.0000      -0.191549        -5.2123
  42   0.0000      -0.052960        -1.4411
  43   0.0000      -0.018342        -0.4991
  44   0.0000       0.026008         0.7077
  45   0.0000       0.041052         1.1171
  46   0.0000       0.052707         1.4342

MULLIKEN ATOMIC CHARGES
-----------------------
   0 C :   -0.254827
   1 C :   -0.163259
   2 H :    0.088735
   3 C :   -0.078773
   4 C :   -0.151674
   5 C :   -0.171451
   6 H :    0.094868
   7 C :   -0.081544
   8 C :    0.003783
   9 O :   -0.165430
  10 C :   -0.040811
  11 C :   -0.231001
  12 C :   -0.236898
  13 H :    0.108356
  14 H :    0.119755
  15 H :    0.106712
  16 H :    0.084030
  17 H :    0.078114
  18 H :    0.091314
  19 H :    0.093871
  20 H :    0.094015
  21 H :    0.101313
  22 H :    0.079644
  23 H :    0.091956
  24 H :    0.112671
  25 H :    0.101090
  26 H :    0.125439
Sum of atomic charges:   -0.0000000

LOEWDIN ATOMIC CHARGES
----------------------
   0 C :   -0.319724
   1 C :   -0.174825
   2 H :    0.137565
   3 C :   -0.218523
   4 C :   -0.220951
   5 C :   -0.129776
   6 H :    0.130533
   7 C :   -0.234986
   8 C :    0.055338
   9 O :   -0.132880
  10 C :   -0.050706
  11 C :   -0.269627
  12 C :   -0.324434
  13 H :    0.118031
  14 H :    0.128445
  15 H :    0.122712
  16 H :    0.122370
  17 H :    0.118449
  18 H :    0.121384
  19 H :    0.125584
  20 H :    0.131116
  21 H :    0.141957
  22 H :    0.118743
  23 H :    0.118765
  24 H :    0.126876
  25 H :    0.126129
  26 H :    0.132435

  Mayer bond orders larger than 0.100000
B(  0-C ,  1-C ) :   1.0942 B(  0-C , 13-H ) :   0.9433 B(  0-C , 14-H ) :   0.9435
B(  0-C , 15-H ) :   0.9465 B(  1-C ,  2-H ) :   0.8694 B(  1-C ,  3-C ) :   1.1022
B(  1-C ,  8-C ) :   0.9290 B(  3-C ,  4-C ) :   1.1384 B(  3-C , 16-H ) :   0.9104
B(  3-C , 17-H ) :   0.8996 B(  4-C ,  5-C ) :   1.1157 B(  4-C , 18-H ) :   0.9079
B(  4-C , 19-H ) :   0.8963 B(  5-C ,  6-H ) :   0.8510 B(  5-C ,  7-C ) :   1.1117
B(  5-C , 10-C ) :   1.0069 B(  7-C ,  8-C ) :   1.0636 B(  7-C , 20-H ) :   0.8769
B(  7-C , 21-H ) :   0.8627 B(  8-C ,  9-O ) :   2.1840 B( 10-C , 11-C ) :   2.0572
B( 10-C , 12-C ) :   1.1116 B( 11-C , 22-H ) :   0.8978 B( 11-C , 23-H ) :   0.8948
B( 12-C , 24-H ) :   0.9343 B( 12-C , 25-H ) :   0.9343 B( 12-C , 26-H ) :   0.9236

Dispersion correction           -0.028708262
FINAL SINGLE POINT ENERGY      -464.821231417276

DIPOLE MOMENT
-------------

Method             : SCF
Type of density    : Electron Density
Multiplicity       :   1
Irrep              :   0
Energy             :  -464.9073251521093653 Eh
Relativity type    :
Basis              : AO
                                X                 Y                 Z
Electronic contribution:     -4.142415198      -3.412797980       3.597548237
Nuclear contribution   :      4.574415649       4.148251620      -3.880604061
                        -----------------------------------------
Total Dipole Moment    :      0.432000452       0.735453640      -0.283055824
                        -----------------------------------------
Magnitude (a.u.)       :      0.898686289
Magnitude (Debye)      :      2.284279013

Rotational constants in cm-1:             0.060442             0.025788             0.020650
Rotational constants in MHz :          1812.007013           773.112425           619.062568

                             ****ORCA TERMINATED NORMALLY****
TOTAL RUN TIME: 0 days 0 hours 0 minutes 16 seconds 289 msec
