                         Program Version 6.0.0  -   RELEASE  -
|  1> ! wb97x-v def2-tzvp def2/J RIJCOSX DEFGRID2 scfconv7 GCP(DFT/TZ) printgap
|  2> %output
|  3>     printlevel normal
|  4> end
|  5> * xyz 0 1
|  6> C -1.2032353947205154 -1.2063204992307932 -0.012118689886404424
|  7> C 0.18557510673344715 -1.2098408284755235 0.001812482894176104
|  8> C 0.8694363539467961 -1.8471871256763758e-06 0.00687999986802857
|  9> C 0.18557650601883796 1.209837829272505 0.0017595341588847622
| 10> C -1.2032339198131028 1.2063187647440623 -0.012168851765955639
| 11> C -1.9212197159178352 -8.506990131231457e-07 -0.023003894115338097
| 12> N -3.30618140539038 -2.20953763286117e-06 -0.10296749919685244
| 13> Cl 2.636264873094938 -2.7198662445092506e-06 0.0254739460171549
| 14> H -1.7407246282277689 -2.150143559937059 -0.014307928174798043
| 15> H 0.7264406849441556 -2.149661886288837 0.011869949820377068
| 16> H 0.7264433137245715 2.149658418666671 0.01177514433581692
| 17> H -1.7407215344036315 2.1501420050652023 -0.014395788555878277
| 18> H -3.7486950932610736 -0.8394944071778422 0.24357932494963658
| 19> H -3.7486958034798996 0.8395029762616484 0.24354664832881406
| 20> *
| 21>
| 22>                          ****END OF INPUT****

CARTESIAN COORDINATES (ANGSTROEM)
---------------------------------
  C     -1.203235   -1.206320   -0.012119
  C      0.185575   -1.209841    0.001812
  C      0.869436   -0.000002    0.006880
  C      0.185577    1.209838    0.001760
  C     -1.203234    1.206319   -0.012169
  C     -1.921220   -0.000001   -0.023004
  N     -3.306181   -0.000002   -0.102967
  Cl     2.636265   -0.000003    0.025474
  H     -1.740725   -2.150144   -0.014308
  H      0.726441   -2.149662    0.011870
  H      0.726443    2.149658    0.011775
  H     -1.740722    2.150142   -0.014396
  H     -3.748695   -0.839494    0.243579
  H     -3.748696    0.839503    0.243547

 Total Charge           Charge          ....    0
 Multiplicity           Mult            ....    1
 Number of Electrons    NEL             ....   66
 Basis Dimension        Dim             ....  290

ORBITAL ENERGIES
----------------

  NO   OCC          E(Eh)            E(eV)
   0   2.0000    -107.133815     -2915.2593
   1   2.0000     -16.540478      -450.0893
   2   2.0000     -12.103658      -329.3573
   3   2.0000     -12.101856      -329.3082
   4   2.0000     -12.064227      -328.2843
   5   2.0000     -12.063760      -328.2716
   6   2.0000     -12.056483      -328.0736
   7   2.0000     -12.056139      -328.0642
   8   2.0000     -11.286800      -307.1294
   9   2.0000      -9.078308      -247.0333
  10   2.0000      -9.075755      -246.9639
  11   2.0000      -9.075690      -246.9621
  12   2.0000      -1.501691       -40.8631
  13   2.0000      -1.419831       -38.6356
  14   2.0000      -1.364344       -37.1257
  15   2.0000      -1.287031       -35.0219
  16   2.0000      -1.259864       -34.2826
  17   2.0000      -1.130719       -30.7684
  18   2.0000      -1.115471       -30.3535
  19   2.0000      -1.020615       -27.7724
  20   2.0000      -1.016910       -27.6715
  21   2.0000      -0.957494       -26.0547
  22   2.0000      -0.947873       -25.7929
  23   2.0000      -0.908663       -24.7260
  24   2.0000      -0.886429       -24.1210
  25   2.0000      -0.865404       -23.5488
  26   2.0000      -0.835074       -22.7235
  27   2.0000      -0.822827       -22.3903
  28   2.0000      -0.809427       -22.0256
  29   2.0000      -0.779116       -21.2008
  30   2.0000      -0.748236       -20.3605
  31   2.0000      -0.651970       -17.7410
  32   2.0000      -0.630108       -17.1461
  33   0.0000      -0.256761        -6.9868
  34   0.0000      -0.253683        -6.9031
  35   0.0000      -0.247531        -6.7357
  36   0.0000      -0.083041        -2.2597
  37   0.0000      -0.078178        -2.1273

MULLIKEN ATOMIC CHARGES
-----------------------
   0 C :   -0.250211
   1 C :   -0.144804
   2 C :    0.107628
   3 C :   -0.144799
   4 C :   -0.250242
   5 C :    0.302817
   6 N :   -0.444160
   7 Cl:   -0.118852
   8 H :    0.112592
   9 H :    0.130509
  10 H :    0.130523
  11 H :    0.112577
  12 H :    0.228211
  13 H :    0.228212
Sum of atomic charges:    0.0000000

LOEWDIN ATOMIC CHARGES
----------------------
   0 C :   -0.129069
   1 C :   -0.140738
   2 C :   -0.422057
   3 C :   -0.140739
   4 C :   -0.129069
   5 C :   -0.239248
   6 N :   -0.047369
   7 Cl:    0.343094
   8 H :    0.142297
   9 H :    0.147913
  10 H :    0.147913
  11 H :    0.142297
  12 H :    0.162388
  13 H :    0.162388

  Mayer bond orders larger than 0.100000
B(  0-C ,  1-C ) :   1.4639 B(  0-C ,  5-C ) :   1.3759 B(  0-C ,  8-H ) :   0.9622
B(  1-C ,  2-C ) :   1.3929 B(  1-C ,  9-H ) :   0.9664 B(  2-C ,  3-C ) :   1.3929
B(  2-C ,  7-Cl) :   0.9583 B(  3-C ,  4-C ) :   1.4638 B(  3-C , 10-H ) :   0.9664
B(  4-C ,  5-C ) :   1.3758 B(  4-C , 11-H ) :   0.9622 B(  5-C ,  6-N ) :   1.0719
B(  6-N , 12-H ) :   0.9283 B(  6-N , 13-H ) :   0.9283

FINAL SINGLE POINT ENERGY      -747.164640008464

DIPOLE MOMENT
-------------

Method             : SCF
Type of density    : Electron Density
Multiplicity       :   1
Irrep              :   0
Energy             :  -747.1718863838638072 Eh
Relativity type    :
Basis              : AO
                                X                 Y                 Z
Electronic contribution:     11.202197762      -0.000005497      -0.054334905
Nuclear contribution   :    -12.509542054       0.000014134       0.434183968
                        -----------------------------------------
Total Dipole Moment    :     -1.307344292       0.000008637       0.379849063
                        -----------------------------------------
Magnitude (a.u.)       :      1.361408979
Magnitude (Debye)      :      3.460426620

Rotational constants in cm-1:             0.186481             0.032151             0.027443
Rotational constants in MHz :          5590.545987           963.870572           822.725751

                             ****ORCA TERMINATED NORMALLY****
TOTAL RUN TIME: 0 days 0 hours 2 minutes 17 seconds 145 msec
