                         Program Version 6.0.0  -   RELEASE  -
|  1> ! wb97x-v def2-tzvp def2/J RIJCOSX DEFGRID2 scfconv7 GCP(DFT/TZ) printgap
|  2> %output
|  3>     printlevel normal
|  4> end
|  5> %cpcm
|  6>     smd true
|  7>     smdsolvent "water"
|  8> end
|  9> * xyz 0 1
| 10> C -1.2032353947205154 -1.2063204992307932 -0.012118689886404424
| 11> C 0.18557510673344715 -1.2098408284755235 0.001812482894176104
| 12> C 0.8694363539467961 -1.8471871256763758e-06 0.00687999986802857
| 13> C 0.18557650601883796 1.209837829272505 0.0017595341588847622
| 14> C -1.2032339198131028 1.2063187647440623 -0.012168851765955639
| 15> C -1.9212197159178352 -8.506990131231457e-07 -0.023003894115338097
| 16> N -3.30618140539038 -2.20953763286117e-06 -0.10296749919685244
| 17> Cl 2.636264873094938 -2.7198662445092506e-06 0.0254739460171549
| 18> H -1.7407246282277689 -2.150143559937059 -0.014307928174798043
| 19> H 0.7264406849441556 -2.149661886288837 0.011869949820377068
| 20> H 0.7264433137245715 2.149658418666671 0.01177514433581692
| 21> H -1.7407215344036315 2.1501420050652023 -0.014395788555878277
| 22> H -3.7486950932610736 -0.8394944071778422 0.24357932494963658
| 23> H -3.7486958034798996 0.8395029762616484 0.24354664832881406
| 24> *
| 25>
| 26>                          ****END OF INPUT****

CARTESIAN COORDINATES (ANGSTROEM)
---------------------------------
  C     -1.203235   -1.206320   -0.012119
  C      0.185575   -1.209841    0.001812
  C      0.869436   -0.000002    0.006880
  C      0.185577    1.209838    0.001760
  C     -1.203234    1.206319   -0.012169
  C     -1.921220   -0.000001   -0.023004
  N     -3.306181   -0.000002   -0.102967
  Cl     2.636265   -0.000003    0.025474
  H     -1.740725   -2.150144   -0.014308
  H      0.726441   -2.149662    0.011870
  H      0.726443    2.149658    0.011775
  H     -1.740722    2.150142   -0.014396
  H     -3.748695   -0.839494    0.243579
  H     -3.748696    0.839503    0.243547

 Total Charge           Charge          ....    0
 Multiplicity           Mult            ....    1
 Number of Electrons    NEL             ....   66
 Basis Dimension        Dim             ....  290

ORBITAL ENERGIES
----------------

  NO   OCC          E(Eh)            E(eV)
   0   2.0000    -107.141317     -2915.4635
   1   2.0000     -16.523525      -449.6280
   2   2.0000     -12.102796      -329.3338
   3   2.0000     -12.095532      -329.1362
   4   2.0000     -12.060330      -328.1783
   5   2.0000     -12.059890      -328.1663
   6   2.0000     -12.049068      -327.8718
   7   2.0000     -12.048715      -327.8622
   8   2.0000     -11.294427      -307.3370
   9   2.0000      -9.085909      -247.2401
  10   2.0000      -9.083439      -247.1729
  11   2.0000      -9.083371      -247.1711
  12   2.0000      -1.487024       -40.4640
  13   2.0000      -1.423708       -38.7411
  14   2.0000      -1.363206       -37.0947
  15   2.0000      -1.282454       -34.8974
  16   2.0000      -1.255698       -34.1693
  17   2.0000      -1.124793       -30.6072
  18   2.0000      -1.108548       -30.1651
  19   2.0000      -1.010141       -27.4873
  20   2.0000      -1.004167       -27.3248
  21   2.0000      -0.956347       -26.0235
  22   2.0000      -0.937774       -25.5181
  23   2.0000      -0.901219       -24.5234
  24   2.0000      -0.879232       -23.9251
  25   2.0000      -0.862695       -23.4751
  26   2.0000      -0.829295       -22.5663
  27   2.0000      -0.816404       -22.2155
  28   2.0000      -0.811421       -22.0799
  29   2.0000      -0.785374       -21.3711
  30   2.0000      -0.746566       -20.3151
  31   2.0000      -0.648783       -17.6543
  32   2.0000      -0.626365       -17.0442
  33   0.0000      -0.260394        -7.0857
  34   0.0000      -0.251569        -6.8455
  35   0.0000      -0.243748        -6.6327
  36   0.0000      -0.078667        -2.1406
  37   0.0000      -0.063611        -1.7309

MULLIKEN ATOMIC CHARGES
-----------------------
   0 C :   -0.311806
   1 C :   -0.167577
   2 C :    0.106590
   3 C :   -0.167573
   4 C :   -0.311837
   5 C :    0.270883
   6 N :   -0.490462
   7 Cl:   -0.141807
   8 H :    0.162337
   9 H :    0.167094
  10 H :    0.167111
  11 H :    0.162328
  12 H :    0.277359
  13 H :    0.277360
Sum of atomic charges:    0.0000000

LOEWDIN ATOMIC CHARGES
----------------------
   0 C :   -0.131109
   1 C :   -0.150990
   2 C :   -0.440211
   3 C :   -0.150990
   4 C :   -0.131109
   5 C :   -0.245955
   6 N :   -0.050910
   7 Cl:    0.322264
   8 H :    0.155730
   9 H :    0.156202
  10 H :    0.156202
  11 H :    0.155730
  12 H :    0.177574
  13 H :    0.177574

  Mayer bond orders larger than 0.100000
B(  0-C ,  1-C ) :   1.4441 B(  0-C ,  5-C ) :   1.3533 B(  0-C ,  8-H ) :   0.9727
B(  1-C ,  2-C ) :   1.3537 B(  1-C ,  9-H ) :   0.9715 B(  2-C ,  3-C ) :   1.3538
B(  2-C ,  7-Cl) :   0.9498 B(  3-C ,  4-C ) :   1.4440 B(  3-C , 10-H ) :   0.9715
B(  4-C ,  5-C ) :   1.3532 B(  4-C , 11-H ) :   0.9728 B(  5-C ,  6-N ) :   1.1265
B(  6-N , 12-H ) :   0.9070 B(  6-N , 13-H ) :   0.9070

FINAL SINGLE POINT ENERGY      -747.173924793614

DIPOLE MOMENT
-------------

Method             : SCF
Type of density    : Electron Density
Multiplicity       :   1
Irrep              :   0
Energy             :  -747.1811711690139646 Eh
Relativity type    :
Basis              : AO
                                X                 Y                 Z
Electronic contribution:     10.727391994      -0.000002743       0.077101354
Nuclear contribution   :    -12.509542054       0.000014134       0.434183968
                        -----------------------------------------
Total Dipole Moment    :     -1.782150060       0.000011392       0.511285322
                        -----------------------------------------
Magnitude (a.u.)       :      1.854041940
Magnitude (Debye)      :      4.712600095

Rotational constants in cm-1:             0.186481             0.032151             0.027443
Rotational constants in MHz :          5590.545987           963.870572           822.725751

                             ****ORCA TERMINATED NORMALLY****
TOTAL RUN TIME: 0 days 0 hours 2 minutes 22 seconds 122 msec
