                         Program Version 6.0.0  -   RELEASE  -
|  1> ! pbe def2-sv(p) def2/J RI DEFGRID1 loosescf d4 GCP(DFT/SV(P)) printgap
|  2> %output
|  3>     printlevel normal
|  4> end
|  5> * xyz 0 1
|  6> C -2.3317271754 -0.9073359859 -0.5011514365
|  7> C -1.0121402965 -0.5462207747 0.1991137454
|  8> H -1.0539612248 -0.8459893411 1.2599464533
|  9> C -0.7382685198 0.9736275616 0.1668193873
| 10> H -1.509990316 1.4610145956 -0.4404454737
| 11> C 0.6407952674 1.2470703157 -0.4802594689
| 12> H 0.9078728567 2.2983165064 -0.3237364013
| 13> C 1.7058952542 0.3740472384 0.2104769407
| 14> H 2.6530489702 0.4533322589 -0.334291519
| 15> C 1.2757451831 -1.1155806998 0.1587441557
| 16> H 1.2218656168 -1.494780581 1.2007696853
| 17> O 0.0062548596 -1.2813560607 -0.4503934762
| 18> O 2.1948439007 -1.8179597727 -0.5905884574
| 19> O 1.9592639088 0.8008871303 1.5214454272
| 20> O 0.6103028964 1.0654231798 -1.870223596
| 21> O -0.7730322247 1.4431555099 1.4998829218
| 22> O -3.4265325487 -0.199299087 0.0119549545
| 23> H -2.4793029958 -1.9911351851 -0.4345211928
| 24> H -2.2558640947 -0.6321168556 -1.555317587
| 25> H 1.897276117 -2.7340571581 -0.7106264019
| 26> H 1.1067471867 0.980945421 1.9610070195
| 27> H 0.5033691082 0.1202747068 -2.0601518914
| 28> H -0.972105964 2.3896446225 1.5143838666
| 29> H -3.6064241223 -0.4828588827 0.9197269712
| 30> *
| 31>
| 32>                          ****END OF INPUT****

CARTESIAN COORDINATES (ANGSTROEM)
---------------------------------
  C     -2.331727   -0.907336   -0.501151
  C     -1.012140   -0.546221    0.199114
  H     -1.053961   -0.845989    1.259946
  C     -0.738269    0.973628    0.166819
  H     -1.509990    1.461015   -0.440445
  C      0.640795    1.247070   -0.480259
  H      0.907873    2.298317   -0.323736
  C      1.705895    0.374047    0.210477
  H      2.653049    0.453332   -0.334292
  C      1.275745   -1.115581    0.158744
  H      1.221866   -1.494781    1.200770
  O      0.006255   -1.281356   -0.450393
  O      2.194844   -1.817960   -0.590588
  O      1.959264    0.800887    1.521445
  O      0.610303    1.065423   -1.870224
  O     -0.773032    1.443156    1.499883
  O     -3.426533   -0.199299    0.011955
  H     -2.479303   -1.991135   -0.434521
  H     -2.255864   -0.632117   -1.555318
  H      1.897276   -2.734057   -0.710626
  H      1.106747    0.980945    1.961007
  H      0.503369    0.120275   -2.060152
  H     -0.972106    2.389645    1.514384
  H     -3.606424   -0.482859    0.919727

 Total Charge           Charge          ....    0
 Multiplicity           Mult            ....    1
 Number of Electrons    NEL             ....   96
 Basis Dimension        Dim             ....  192

ORBITAL ENERGIES
----------------

  NO   OCC          E(Eh)            E(eV)
   0   2.0000     -18.785107      -511.1687
   1   2.0000     -18.781630      -511.0741
   2   2.0000     -18.766225      -510.6549
   3   2.0000     -18.763496      -510.5807
   4   2.0000     -18.745520      -510.0915
   5   2.0000     -18.736058      -509.8341
   6   2.0000      -9.987062      -271.7618
   7   2.0000      -9.954363      -270.8720
   8   2.0000      -9.948953      -270.7248
   9   2.0000      -9.944496      -270.6035
  10   2.0000      -9.940011      -270.4814
  11   2.0000      -9.932169      -270.2681
  12   2.0000      -0.993329       -27.0299
  13   2.0000      -0.956109       -26.0170
  14   2.0000      -0.940173       -25.5834
  15   2.0000      -0.928244       -25.2588
  16   2.0000      -0.921455       -25.0741
  17   2.0000      -0.912414       -24.8280
  18   2.0000      -0.706432       -19.2230
  19   2.0000      -0.683137       -18.5891
  20   2.0000      -0.624994       -17.0070
  21   2.0000      -0.592785       -16.1305
  22   2.0000      -0.569867       -15.5069
  23   2.0000      -0.523802       -14.2534
  24   2.0000      -0.510291       -13.8857
  25   2.0000      -0.490100       -13.3363
  26   2.0000      -0.488309       -13.2876
  27   2.0000      -0.471157       -12.8208
  28   2.0000      -0.463034       -12.5998
  29   2.0000      -0.435291       -11.8449
  30   2.0000      -0.413640       -11.2557
  31   2.0000      -0.405958       -11.0467
  32   2.0000      -0.382930       -10.4201
  33   2.0000      -0.373804       -10.1717
  34   2.0000      -0.353370        -9.6157
  35   2.0000      -0.351834        -9.5739
  36   2.0000      -0.336323        -9.1518
  37   2.0000      -0.318326        -8.6621
  38   2.0000      -0.315854        -8.5948
  39   2.0000      -0.302195        -8.2231
  40   2.0000      -0.288501        -7.8505
  41   2.0000      -0.270923        -7.3722
  42   2.0000      -0.261982        -7.1289
  43   2.0000      -0.254341        -6.9210
  44   2.0000      -0.241291        -6.5659
  45   2.0000      -0.232731        -6.3329
  46   2.0000      -0.210755        -5.7349
  47   2.0000      -0.197538        -5.3753
  48   0.0000       0.005786         0.1574
  49   0.0000       0.015563         0.4235
  50   0.0000       0.025814         0.7024
  51   0.0000       0.040686         1.1071
  52   0.0000       0.051908         1.4125

MULLIKEN ATOMIC CHARGES
-----------------------
   0 C :    0.065341
   1 C :    0.005484
   2 H :    0.056103
   3 C :    0.010662
   4 H :    0.086849
   5 C :    0.027372
   6 H :    0.069432
   7 C :    0.056572
   8 H :    0.088343
   9 C :    0.184478
  10 H :    0.045137
  11 O :   -0.319952
  12 O :   -0.376261
  13 O :   -0.431123
  14 O :   -0.422205
  15 O :   -0.419671
  16 O :   -0.426208
  17 H :    0.086401
  18 H :    0.089881
  19 H :    0.304302
  20 H :    0.295052
  21 H :    0.306391
  22 H :    0.315476
  23 H :    0.302143
Sum of atomic charges:   -0.0000000

LOEWDIN ATOMIC CHARGES
----------------------
   0 C :   -0.124320
   1 C :   -0.073190
   2 H :    0.101651
   3 C :   -0.083152
   4 H :    0.115033
   5 C :   -0.081935
   6 H :    0.113729
   7 C :   -0.083652
   8 H :    0.125238
   9 C :   -0.003287
  10 H :    0.083341
  11 O :   -0.162143
  12 O :   -0.288297
  13 O :   -0.322510
  14 O :   -0.314853
  15 O :   -0.309669
  16 O :   -0.324932
  17 H :    0.101824
  18 H :    0.116933
  19 H :    0.288215
  20 H :    0.266210
  21 H :    0.275349
  22 H :    0.296487
  23 H :    0.287931

  Mayer bond orders larger than 0.100000
B(  0-C ,  1-C ) :   1.0383 B(  0-C , 16-O ) :   1.0716 B(  0-C , 17-H ) :   0.9207
B(  0-C , 18-H ) :   0.9126 B(  1-C ,  2-H ) :   0.8710 B(  1-C ,  3-C ) :   0.9755
B(  1-C , 11-O ) :   1.0137 B(  3-C ,  4-H ) :   0.8939 B(  3-C ,  5-C ) :   0.9738
B(  3-C , 15-O ) :   1.0170 B(  5-C ,  6-H ) :   0.8974 B(  5-C ,  7-C ) :   0.9930
B(  5-C , 14-O ) :   1.0520 B(  7-C ,  8-H ) :   0.8882 B(  7-C ,  9-C ) :   0.9491
B(  7-C , 13-O ) :   1.0664 B(  9-C , 10-H ) :   0.8882 B(  9-C , 11-O ) :   0.9821
B(  9-C , 12-O ) :   1.1702 B( 12-O , 19-H ) :   0.8395 B( 13-O , 20-H ) :   0.8074
B( 14-O , 21-H ) :   0.8280 B( 15-O , 20-H ) :   0.1115 B( 15-O , 22-H ) :   0.8401
B( 16-O , 23-H ) :   0.8497

Dispersion correction           -0.024903444
FINAL SINGLE POINT ENERGY      -685.693536641660

DIPOLE MOMENT
-------------

Method             : SCF
Type of density    : Electron Density
Multiplicity       :   1
Irrep              :   0
Energy             :  -685.8253428402593954 Eh
Relativity type    :
Basis              : AO
                                X                 Y                 Z
Electronic contribution:      2.281577862      -0.094663203      -0.320780659
Nuclear contribution   :     -3.357195518      -0.447730945       0.936923514
                        -----------------------------------------
Total Dipole Moment    :     -1.075617656      -0.542394148       0.616142855
                        -----------------------------------------
Magnitude (a.u.)       :      1.353061999
Magnitude (Debye)      :      3.439210282

Rotational constants in cm-1:             0.042775             0.025341             0.021417
Rotational constants in MHz :          1282.368149           759.703049           642.062451

                             ****ORCA TERMINATED NORMALLY****
TOTAL RUN TIME: 0 days 0 hours 0 minutes 12 seconds 373 msec
