                         Program Version 6.0.0  -   RELEASE  -
|  1> ! pbe def2-sv(p) def2/J RI DEFGRID1 loosescf d4 GCP(DFT/SV(P)) printgap
|  2> %output
|  3>     printlevel normal
|  4> end
|  5> * xyz 0 1
|  6> C -1.6143344785 -1.6869420679 -0.3619325066
|  7> C -1.6035678353 -0.2317372493 -0.820559191
|  8> C -2.2535185182 0.6769747604 0.2186078935
|  9> C -0.196571988 0.233655984 -1.16622114
| 10> Br 1.0310888815 0.1860506376 0.3766089063
| 11> H -1.0566283291 -1.7967151839 0.5660965351
| 12> H -2.634315247 -2.0177485952 -0.1877252782
| 13> H -1.1654438105 -2.3327444408 -1.1135719514
| 14> H -2.1707202285 -0.1551356458 -1.7568804688
| 15> H -3.2791084838 0.3673247504 0.3986775387
| 16> H -2.2593884502 1.7105123164 -0.1209182501
| 17> H -1.7109211238 0.6254508762 1.1605632112
| 18> H -0.1873266039 1.2687668457 -1.5034169881
| 19> H 0.2657218362 -0.4066744909 -1.9155597556
| 20> *
| 21>
| 22>                          ****END OF INPUT****

CARTESIAN COORDINATES (ANGSTROEM)
---------------------------------
  C     -1.614334   -1.686942   -0.361933
  C     -1.603568   -0.231737   -0.820559
  C     -2.253519    0.676975    0.218608
  C     -0.196572    0.233656   -1.166221
  Br     1.031089    0.186051    0.376609
  H     -1.056628   -1.796715    0.566097
  H     -2.634315   -2.017749   -0.187725
  H     -1.165444   -2.332744   -1.113572
  H     -2.170720   -0.155136   -1.756880
  H     -3.279108    0.367325    0.398678
  H     -2.259388    1.710512   -0.120918
  H     -1.710921    0.625451    1.160563
  H     -0.187327    1.268767   -1.503417
  H      0.265722   -0.406674   -1.915560

 Total Charge           Charge          ....    0
 Multiplicity           Mult            ....    1
 Number of Electrons    NEL             ....   68
 Basis Dimension        Dim             ....  106

ORBITAL ENERGIES
----------------

  NO   OCC          E(Eh)            E(eV)
   0   2.0000    -480.919566    -13086.4867
   1   2.0000     -61.761656     -1680.6201
   2   2.0000     -55.692249     -1515.4632
   3   2.0000     -55.689179     -1515.3796
   4   2.0000     -55.689138     -1515.3785
   5   2.0000      -9.938007      -270.4269
   6   2.0000      -9.910515      -269.6788
   7   2.0000      -9.876736      -268.7596
   8   2.0000      -9.876696      -268.7586
   9   2.0000      -8.386690      -228.2134
  10   2.0000      -6.268459      -170.5734
  11   2.0000      -6.254494      -170.1934
  12   2.0000      -6.254138      -170.1837
  13   2.0000      -2.469585       -67.2008
  14   2.0000      -2.466284       -67.1110
  15   2.0000      -2.465980       -67.1027
  16   2.0000      -2.455498       -66.8175
  17   2.0000      -2.455489       -66.8172
  18   2.0000      -0.756184       -20.5768
  19   2.0000      -0.693956       -18.8835
  20   2.0000      -0.616464       -16.7748
  21   2.0000      -0.603208       -16.4141
  22   2.0000      -0.500705       -13.6249
  23   2.0000      -0.430551       -11.7159
  24   2.0000      -0.414564       -11.2809
  25   2.0000      -0.396505       -10.7894
  26   2.0000      -0.347942        -9.4680
  27   2.0000      -0.344070        -9.3626
  28   2.0000      -0.335218        -9.1217
  29   2.0000      -0.310014        -8.4359
  30   2.0000      -0.299947        -8.1620
  31   2.0000      -0.292993        -7.9727
  32   2.0000      -0.233842        -6.3632
  33   2.0000      -0.231211        -6.2916
  34   0.0000      -0.023422        -0.6374
  35   0.0000       0.028017         0.7624
  36   0.0000       0.076333         2.0771
  37   0.0000       0.079239         2.1562
  38   0.0000       0.090800         2.4708

MULLIKEN ATOMIC CHARGES
-----------------------
   0 C :   -0.249188
   1 C :   -0.176642
   2 C :   -0.250098
   3 C :   -0.196067
   4 Br:   -0.129608
   5 H :    0.115173
   6 H :    0.102958
   7 H :    0.099459
   8 H :    0.089917
   9 H :    0.103168
  10 H :    0.099555
  11 H :    0.115449
  12 H :    0.137939
  13 H :    0.137987
Sum of atomic charges:   -0.0000000

LOEWDIN ATOMIC CHARGES
----------------------
   0 C :   -0.334773
   1 C :   -0.174768
   2 C :   -0.334918
   3 C :   -0.264160
   4 Br:    0.009341
   5 H :    0.120600
   6 H :    0.120163
   7 H :    0.118195
   8 H :    0.126911
   9 H :    0.120232
  10 H :    0.118238
  11 H :    0.120628
  12 H :    0.127150
  13 H :    0.127161

  Mayer bond orders larger than 0.100000
B(  0-C ,  1-C ) :   1.1066 B(  0-C ,  5-H ) :   0.9411 B(  0-C ,  6-H ) :   0.9515
B(  0-C ,  7-H ) :   0.9507 B(  1-C ,  2-C ) :   1.1068 B(  1-C ,  3-C ) :   1.0688
B(  1-C ,  8-H ) :   0.8864 B(  2-C ,  9-H ) :   0.9515 B(  2-C , 10-H ) :   0.9506
B(  2-C , 11-H ) :   0.9410 B(  3-C ,  4-Br) :   1.0296 B(  3-C , 12-H ) :   0.9247
B(  3-C , 13-H ) :   0.9247

Dispersion correction           -0.011328650
FINAL SINGLE POINT ENERGY     -2730.887964242639

DIPOLE MOMENT
-------------

Method             : SCF
Type of density    : Electron Density
Multiplicity       :   1
Irrep              :   0
Energy             : -2730.9411690091051241 Eh
Relativity type    :
Basis              : AO
                                X                 Y                 Z
Electronic contribution:     22.352789366       4.275471453       7.179517080
Nuclear contribution   :    -22.894052628      -4.295242321      -7.693043467
                        -----------------------------------------
Total Dipole Moment    :     -0.541263262      -0.019770868      -0.513526386
                        -----------------------------------------
Magnitude (a.u.)       :      0.746368646
Magnitude (Debye)      :      1.897118331

Rotational constants in cm-1:             0.186045             0.056510             0.052868
Rotational constants in MHz :          5577.486660          1694.124287          1584.939042

                             ****ORCA TERMINATED NORMALLY****
TOTAL RUN TIME: 0 days 0 hours 0 minutes 5 seconds 858 msec
