                         Program Version 6.0.0  -   RELEASE  -
|  1> ! pbe def2-sv(p) def2/J RI DEFGRID1 loosescf d4 GCP(DFT/SV(P)) printgap
|  2> %output
|  3>     printlevel normal
|  4> end
|  5> * xyz 0 1
|  6> C -2.8812765494 -0.0519969809 0.0102186835
|  7> C -1.7821242634 0.999156089 -0.072205028
|  8> C -0.3457251887 0.5278219877 -0.0418953173
|  9> C 0.6291279239 1.5176058948 -0.1332196605
| 10> C 1.9812705428 1.2357655348 -0.1172096559
| 11> C 2.3960688279 -0.0793028787 -0.0066913006
| 12> C 1.4516365849 -1.0815117275 0.0853541691
| 13> C 0.0869673997 -0.7979708439 0.0697142636
| 14> O -0.8108685457 -1.8189166984 0.1635665617
| 15> H -2.8159388809 -0.6135616852 0.9375488165
| 16> H -2.8163554433 -0.7505705326 -0.8189617684
| 17> H -3.8508980179 0.4410161167 -0.0279897542
| 18> H -1.9106171698 1.7027555081 0.7567450478
| 19> H -1.9166883417 1.5712908825 -0.99586632
| 20> H 0.3034489704 2.5445078313 -0.2195399935
| 21> H 2.7030526635 2.0345115467 -0.190198394
| 22> H 3.4465501469 -0.3262314118 0.008328193
| 23> H 1.770145742 -2.1113635501 0.1720712825
| 24> H -0.3446160491 -2.6649852409 0.2354921971
| 25> *
| 26>
| 27>                          ****END OF INPUT****

CARTESIAN COORDINATES (ANGSTROEM)
---------------------------------
  C     -2.881277   -0.051997    0.010219
  C     -1.782124    0.999156   -0.072205
  C     -0.345725    0.527822   -0.041895
  C      0.629128    1.517606   -0.133220
  C      1.981271    1.235766   -0.117210
  C      2.396069   -0.079303   -0.006691
  C      1.451637   -1.081512    0.085354
  C      0.086967   -0.797971    0.069714
  O     -0.810869   -1.818917    0.163567
  H     -2.815939   -0.613562    0.937549
  H     -2.816355   -0.750571   -0.818962
  H     -3.850898    0.441016   -0.027990
  H     -1.910617    1.702756    0.756745
  H     -1.916688    1.571291   -0.995866
  H      0.303449    2.544508   -0.219540
  H      2.703053    2.034512   -0.190198
  H      3.446550   -0.326231    0.008328
  H      1.770146   -2.111364    0.172071
  H     -0.344616   -2.664985    0.235492

 Total Charge           Charge          ....    0
 Multiplicity           Mult            ....    1
 Number of Electrons    NEL             ....   66
 Basis Dimension        Dim             ....  146

ORBITAL ENERGIES
----------------

  NO   OCC          E(Eh)            E(eV)
   0   2.0000     -18.777532      -510.9626
   1   2.0000      -9.948949      -270.7247
   2   2.0000      -9.894903      -269.2540
   3   2.0000      -9.889030      -269.0942
   4   2.0000      -9.887868      -269.0626
   5   2.0000      -9.886977      -269.0383
   6   2.0000      -9.885420      -268.9959
   7   2.0000      -9.881929      -268.9009
   8   2.0000      -9.863156      -268.3901
   9   2.0000      -0.961316       -26.1587
  10   2.0000      -0.770547       -20.9676
  11   2.0000      -0.704957       -19.1829
  12   2.0000      -0.659298       -17.9404
  13   2.0000      -0.644435       -17.5360
  14   2.0000      -0.569635       -15.5006
  15   2.0000      -0.553176       -15.0527
  16   2.0000      -0.513711       -13.9788
  17   2.0000      -0.486691       -13.2435
  18   2.0000      -0.433486       -11.7957
  19   2.0000      -0.418548       -11.3893
  20   2.0000      -0.400859       -10.9079
  21   2.0000      -0.385308       -10.4848
  22   2.0000      -0.373150       -10.1539
  23   2.0000      -0.353200        -9.6111
  24   2.0000      -0.348166        -9.4741
  25   2.0000      -0.326939        -8.8965
  26   2.0000      -0.311784        -8.4841
  27   2.0000      -0.309813        -8.4304
  28   2.0000      -0.300016        -8.1638
  29   2.0000      -0.286162        -7.7869
  30   2.0000      -0.273376        -7.4389
  31   2.0000      -0.217147        -5.9089
  32   2.0000      -0.189947        -5.1687
  33   0.0000      -0.032548        -0.8857
  34   0.0000      -0.013236        -0.3602
  35   0.0000       0.022384         0.6091
  36   0.0000       0.049505         1.3471
  37   0.0000       0.054160         1.4738

MULLIKEN ATOMIC CHARGES
-----------------------
   0 C :   -0.226324
   1 C :   -0.174237
   2 C :    0.012723
   3 C :   -0.141965
   4 C :   -0.037792
   5 C :   -0.051019
   6 C :   -0.158989
   7 C :    0.164716
   8 O :   -0.340225
   9 H :    0.102523
  10 H :    0.102018
  11 H :    0.089924
  12 H :    0.096706
  13 H :    0.096194
  14 H :    0.036423
  15 H :    0.044985
  16 H :    0.048636
  17 H :    0.020211
  18 H :    0.315489
Sum of atomic charges:   -0.0000000

LOEWDIN ATOMIC CHARGES
----------------------
   0 C :   -0.343941
   1 C :   -0.217682
   2 C :   -0.064684
   3 C :   -0.112244
   4 C :   -0.146560
   5 C :   -0.123429
   6 C :   -0.173840
   7 C :    0.023805
   8 O :   -0.227834
   9 H :    0.118957
  10 H :    0.118907
  11 H :    0.114402
  12 H :    0.127240
  13 H :    0.127032
  14 H :    0.121579
  15 H :    0.121571
  16 H :    0.122882
  17 H :    0.117716
  18 H :    0.296122

  Mayer bond orders larger than 0.100000
B(  0-C ,  1-C ) :   1.1988 B(  0-C ,  9-H ) :   0.9478 B(  0-C , 10-H ) :   0.9485
B(  0-C , 11-H ) :   0.9408 B(  1-C ,  2-C ) :   1.0558 B(  1-C , 12-H ) :   0.9094
B(  1-C , 13-H ) :   0.9099 B(  2-C ,  3-C ) :   1.4010 B(  2-C ,  7-C ) :   1.3939
B(  3-C ,  4-C ) :   1.3663 B(  3-C , 14-H ) :   0.9646 B(  4-C ,  5-C ) :   1.3540
B(  4-C , 15-H ) :   0.9673 B(  5-C ,  6-C ) :   1.3863 B(  5-C , 16-H ) :   0.9637
B(  6-C ,  7-C ) :   1.3163 B(  6-C , 17-H ) :   0.9480 B(  7-C ,  8-O ) :   1.1675
B(  8-O , 18-H ) :   0.8383

Dispersion correction           -0.019093054
FINAL SINGLE POINT ENERGY      -385.228319010754

DIPOLE MOMENT
-------------

Method             : SCF
Type of density    : Electron Density
Multiplicity       :   1
Irrep              :   0
Energy             :  -385.2888597548191001 Eh
Relativity type    :
Basis              : AO
                                X                 Y                 Z
Electronic contribution:      5.318369835      -2.095825276       0.167351440
Nuclear contribution   :     -5.108071187       1.687424418      -0.131143665
                        -----------------------------------------
Total Dipole Moment    :      0.210298648      -0.408400858       0.036207775
                        -----------------------------------------
Magnitude (a.u.)       :      0.460790392
Magnitude (Debye)      :      1.171236096

Rotational constants in cm-1:             0.100622             0.046551             0.032207
Rotational constants in MHz :          3016.563300          1395.568356           965.532888

                             ****ORCA TERMINATED NORMALLY****
TOTAL RUN TIME: 0 days 0 hours 0 minutes 8 seconds 920 msec
