                         Program Version 6.0.0  -   RELEASE  -
|  1> ! wb97x-v def2-tzvp def2/J RIJCOSX DEFGRID2 scfconv7 GCP(DFT/TZ) printgap
|  2> %output
|  3>     printlevel normal
|  4> end
|  5> * xyz 0 1
|  6> C 2.0722982104720935 0.01544996254833836 -0.11113447025268251
|  7> C 0.7590292781082629 0.6842485314478105 0.28197482249851624
|  8> C -0.47037292173619605 0.028784670760569373 -0.3405062318511931
|  9> H -0.3436346045711065 -0.011019029177328634 -1.429718676342909
| 10> C -1.7511885503501978 0.7751162855921886 -0.0020965326281977225
| 11> O -0.5765137963679503 -1.3604077885060182 0.057607286870998704
| 12> H 2.2015520415956082 0.019358041757001874 -1.1993682899174478
| 13> H 2.108694624358744 -1.0240962107860048 0.22828517658621808
| 14> H 2.9260906317589663 0.5397830341339395 0.3294036732581287
| 15> H 0.7721876500498932 1.7372517790891828 -0.024746481243286177
| 16> H 0.6389691023551373 0.6760733888518552 1.3746383326348584
| 17> H -2.616478250939486 0.291706624753139 -0.46555110565535396
| 18> H -1.903783798792761 0.7970032354495757 1.083624293869619
| 19> H -1.7006585717305625 1.8082849828167225 -0.3607872469967845
| 20> H -0.6627402375467445 -1.3681890530980432 1.0212967346047628
| 21> *
| 22>
| 23>                          ****END OF INPUT****

CARTESIAN COORDINATES (ANGSTROEM)
---------------------------------
  C      2.072298    0.015450   -0.111134
  C      0.759029    0.684249    0.281975
  C     -0.470373    0.028785   -0.340506
  H     -0.343635   -0.011019   -1.429719
  C     -1.751189    0.775116   -0.002097
  O     -0.576514   -1.360408    0.057607
  H      2.201552    0.019358   -1.199368
  H      2.108695   -1.024096    0.228285
  H      2.926091    0.539783    0.329404
  H      0.772188    1.737252   -0.024746
  H      0.638969    0.676073    1.374638
  H     -2.616478    0.291707   -0.465551
  H     -1.903784    0.797003    1.083624
  H     -1.700659    1.808285   -0.360787
  H     -0.662740   -1.368189    1.021297

 Total Charge           Charge          ....    0
 Multiplicity           Mult            ....    1
 Number of Electrons    NEL             ....   42
 Basis Dimension        Dim             ....  215

ORBITAL ENERGIES
----------------

  NO   OCC          E(Eh)            E(eV)
   0   2.0000     -21.665137      -589.5383
   1   2.0000     -12.095262      -329.1288
   2   2.0000     -12.044400      -327.7448
   3   2.0000     -12.037456      -327.5558
   4   2.0000     -12.032148      -327.4114
   5   2.0000      -1.663366       -45.2625
   6   2.0000      -1.305403       -35.5218
   7   2.0000      -1.231552       -33.5122
   8   2.0000      -1.136008       -30.9123
   9   2.0000      -1.094442       -29.7813
  10   2.0000      -0.987667       -26.8758
  11   2.0000      -0.955433       -25.9986
  12   2.0000      -0.925989       -25.1974
  13   2.0000      -0.870907       -23.6986
  14   2.0000      -0.852379       -23.1944
  15   2.0000      -0.844984       -22.9932
  16   2.0000      -0.817708       -22.2510
  17   2.0000      -0.802303       -21.8318
  18   2.0000      -0.788079       -21.4447
  19   2.0000      -0.770447       -20.9649
  20   2.0000      -0.757519       -20.6131
  21   0.0000      -0.142124        -3.8674
  22   0.0000      -0.057647        -1.5687
  23   0.0000      -0.028770        -0.7829
  24   0.0000      -0.007610        -0.2071
  25   0.0000      -0.001932        -0.0526

MULLIKEN ATOMIC CHARGES
-----------------------
   0 C :   -0.309199
   1 C :   -0.197815
   2 C :    0.092471
   3 H :    0.072950
   4 C :   -0.325208
   5 O :   -0.450400
   6 H :    0.100513
   7 H :    0.113024
   8 H :    0.111498
   9 H :    0.089174
  10 H :    0.083742
  11 H :    0.127879
  12 H :    0.093858
  13 H :    0.105694
  14 H :    0.291819
Sum of atomic charges:    0.0000000

LOEWDIN ATOMIC CHARGES
----------------------
   0 C :   -0.305506
   1 C :   -0.282739
   2 C :   -0.364562
   3 H :    0.140162
   4 C :   -0.291774
   5 O :   -0.038904
   6 H :    0.117345
   7 H :    0.118631
   8 H :    0.115129
   9 H :    0.136592
  10 H :    0.130352
  11 H :    0.121608
  12 H :    0.116182
  13 H :    0.121275
  14 H :    0.166210

  Mayer bond orders larger than 0.100000
B(  0-C ,  1-C ) :   0.9903 B(  0-C ,  6-H ) :   0.9781 B(  0-C ,  7-H ) :   0.9765
B(  0-C ,  8-H ) :   0.9828 B(  1-C ,  2-C ) :   1.0009 B(  1-C ,  9-H ) :   0.9687
B(  1-C , 10-H ) :   0.9620 B(  2-C ,  3-H ) :   0.9577 B(  2-C ,  4-C ) :   1.0022
B(  2-C ,  5-O ) :   0.9711 B(  4-C , 11-H ) :   0.9848 B(  4-C , 12-H ) :   0.9621
B(  4-C , 13-H ) :   0.9755 B(  5-O , 14-H ) :   0.9034

FINAL SINGLE POINT ENERGY      -233.681140060932

DIPOLE MOMENT
-------------

Method             : SCF
Type of density    : Electron Density
Multiplicity       :   1
Irrep              :   0
Energy             :  -233.6917354674320961 Eh
Relativity type    :
Basis              : AO
                                X                 Y                 Z
Electronic contribution:     -1.379771390      -2.690041694      -0.235984221
Nuclear contribution   :      1.383222205       3.258564609       0.596994891
                        -----------------------------------------
Total Dipole Moment    :      0.003450815       0.568522915       0.361010670
                        -----------------------------------------
Magnitude (a.u.)       :      0.673467829
Magnitude (Debye)      :      1.711819180

Rotational constants in cm-1:             0.263703             0.114635             0.088922
Rotational constants in MHz :          7905.623361          3436.681615          2665.807145

                             ****ORCA TERMINATED NORMALLY****
TOTAL RUN TIME: 0 days 0 hours 1 minutes 0 seconds 971 msec
