                         Program Version 6.0.0  -   RELEASE  -
|  1> ! wb97x-v def2-tzvp def2/J RIJCOSX DEFGRID2 scfconv7 GCP(DFT/TZ) printgap
|  2> %output
|  3>     printlevel normal
|  4> end
|  5> %cpcm
|  6>     smd true
|  7>     smdsolvent "water"
|  8> end
|  9> * xyz 0 1
| 10> C 2.0722982104720935 0.01544996254833836 -0.11113447025268251
| 11> C 0.7590292781082629 0.6842485314478105 0.28197482249851624
| 12> C -0.47037292173619605 0.028784670760569373 -0.3405062318511931
| 13> H -0.3436346045711065 -0.011019029177328634 -1.429718676342909
| 14> C -1.7511885503501978 0.7751162855921886 -0.0020965326281977225
| 15> O -0.5765137963679503 -1.3604077885060182 0.057607286870998704
| 16> H 2.2015520415956082 0.019358041757001874 -1.1993682899174478
| 17> H 2.108694624358744 -1.0240962107860048 0.22828517658621808
| 18> H 2.9260906317589663 0.5397830341339395 0.3294036732581287
| 19> H 0.7721876500498932 1.7372517790891828 -0.024746481243286177
| 20> H 0.6389691023551373 0.6760733888518552 1.3746383326348584
| 21> H -2.616478250939486 0.291706624753139 -0.46555110565535396
| 22> H -1.903783798792761 0.7970032354495757 1.083624293869619
| 23> H -1.7006585717305625 1.8082849828167225 -0.3607872469967845
| 24> H -0.6627402375467445 -1.3681890530980432 1.0212967346047628
| 25> *
| 26>
| 27>                          ****END OF INPUT****

CARTESIAN COORDINATES (ANGSTROEM)
---------------------------------
  C      2.072298    0.015450   -0.111134
  C      0.759029    0.684249    0.281975
  C     -0.470373    0.028785   -0.340506
  H     -0.343635   -0.011019   -1.429719
  C     -1.751189    0.775116   -0.002097
  O     -0.576514   -1.360408    0.057607
  H      2.201552    0.019358   -1.199368
  H      2.108695   -1.024096    0.228285
  H      2.926091    0.539783    0.329404
  H      0.772188    1.737252   -0.024746
  H      0.638969    0.676073    1.374638
  H     -2.616478    0.291707   -0.465551
  H     -1.903784    0.797003    1.083624
  H     -1.700659    1.808285   -0.360787
  H     -0.662740   -1.368189    1.021297

 Total Charge           Charge          ....    0
 Multiplicity           Mult            ....    1
 Number of Electrons    NEL             ....   42
 Basis Dimension        Dim             ....  215

ORBITAL ENERGIES
----------------

  NO   OCC          E(Eh)            E(eV)
   0   2.0000     -21.668309      -589.6247
   1   2.0000     -12.088795      -328.9528
   2   2.0000     -12.032630      -327.4245
   3   2.0000     -12.025943      -327.2425
   4   2.0000     -12.024925      -327.2148
   5   2.0000      -1.666869       -45.3578
   6   2.0000      -1.297017       -35.2936
   7   2.0000      -1.223124       -33.2829
   8   2.0000      -1.129827       -30.7442
   9   2.0000      -1.089929       -29.6585
  10   2.0000      -0.989950       -26.9379
  11   2.0000      -0.952215       -25.9111
  12   2.0000      -0.927536       -25.2395
  13   2.0000      -0.863808       -23.5054
  14   2.0000      -0.843013       -22.9396
  15   2.0000      -0.839874       -22.8541
  16   2.0000      -0.808271       -21.9942
  17   2.0000      -0.792793       -21.5730
  18   2.0000      -0.779886       -21.2218
  19   2.0000      -0.762385       -20.7455
  20   2.0000      -0.747827       -20.3494
  21   0.0000      -0.137144        -3.7319
  22   0.0000      -0.035594        -0.9686
  23   0.0000      -0.019517        -0.5311
  24   0.0000       0.002354         0.0641
  25   0.0000       0.011260         0.3064

MULLIKEN ATOMIC CHARGES
-----------------------
   0 C :   -0.380500
   1 C :   -0.205473
   2 C :    0.128695
   3 H :    0.095533
   4 C :   -0.390189
   5 O :   -0.568644
   6 H :    0.119402
   7 H :    0.115037
   8 H :    0.129931
   9 H :    0.108694
  10 H :    0.109609
  11 H :    0.130644
  12 H :    0.124856
  13 H :    0.128862
  14 H :    0.353543
Sum of atomic charges:    0.0000000

LOEWDIN ATOMIC CHARGES
----------------------
   0 C :   -0.315291
   1 C :   -0.279589
   2 C :   -0.362711
   3 H :    0.143078
   4 C :   -0.295156
   5 O :   -0.083324
   6 H :    0.119383
   7 H :    0.115231
   8 H :    0.118903
   9 H :    0.142040
  10 H :    0.137834
  11 H :    0.120441
  12 H :    0.123396
  13 H :    0.127141
  14 H :    0.188625

  Mayer bond orders larger than 0.100000
B(  0-C ,  1-C ) :   0.9752 B(  0-C ,  6-H ) :   0.9767 B(  0-C ,  7-H ) :   0.9793
B(  0-C ,  8-H ) :   0.9804 B(  1-C ,  2-C ) :   0.9928 B(  1-C ,  9-H ) :   0.9646
B(  1-C , 10-H ) :   0.9652 B(  2-C ,  3-H ) :   0.9625 B(  2-C ,  4-C ) :   0.9953
B(  2-C ,  5-O ) :   0.9248 B(  4-C , 11-H ) :   0.9794 B(  4-C , 12-H ) :   0.9668
B(  4-C , 13-H ) :   0.9721 B(  5-O , 14-H ) :   0.8693

FINAL SINGLE POINT ENERGY      -233.688339517036

DIPOLE MOMENT
-------------

Method             : SCF
Type of density    : Electron Density
Multiplicity       :   1
Irrep              :   0
Energy             :  -233.6989349235359157 Eh
Relativity type    :
Basis              : AO
                                X                 Y                 Z
Electronic contribution:     -1.383823356      -2.430205734      -0.057267184
Nuclear contribution   :      1.383222205       3.258564609       0.596994891
                        -----------------------------------------
Total Dipole Moment    :     -0.000601152       0.828358875       0.539727707
                        -----------------------------------------
Magnitude (a.u.)       :      0.988678302
Magnitude (Debye)      :      2.513020530

Rotational constants in cm-1:             0.263703             0.114635             0.088922
Rotational constants in MHz :          7905.623361          3436.681615          2665.807145

                             ****ORCA TERMINATED NORMALLY****
TOTAL RUN TIME: 0 days 0 hours 1 minutes 9 seconds 909 msec
