                         Program Version 6.0.0  -   RELEASE  -
|  1> ! pbe def2-sv(p) def2/J RI DEFGRID1 loosescf d4 GCP(DFT/SV(P)) printgap
|  2> %output
|  3>     printlevel normal
|  4> end
|  5> * xyz 0 1
|  6> C -1.8959724418 -0.0001699748 0.2790486608
|  7> C -1.1873115534 -1.2535853184 -0.2270177447
|  8> C 0.2761958634 -1.2528680193 0.2052451279
|  9> C 0.9866419011 0.0001392149 -0.3139352622
| 10> C 0.2759457608 1.2529908742 0.205262831
| 11> C -1.1876126844 1.2534622638 -0.2269725823
| 12> O 2.3664333605 3.8435e-05 0.0081215127
| 13> H -1.896620255 -0.0002427983 1.3711946261
| 14> H -2.9341131609 -0.0002497948 -0.0570992267
| 15> H -1.6831482206 -2.1453081379 0.160062289
| 16> H -1.2409360662 -1.2853974852 -1.3173303187
| 17> H 0.3345302224 -1.2686900963 1.2966510554
| 18> H 0.7876682992 -2.1394777178 -0.17424917
| 19> H 0.9675984875 0.0002737428 -1.410300953
| 20> H 0.3344438671 1.2689947905 1.2967459625
| 21> H 0.7871506484 2.1397623091 -0.1744402407
| 22> H -1.6836702258 2.1450198266 0.1602004252
| 23> H -1.2412191951 1.2852913176 -1.3173480597
| 24> H 2.4617645412 -0.0002171312 0.9709045447
| 25> *
| 26>
| 27>                          ****END OF INPUT****

CARTESIAN COORDINATES (ANGSTROEM)
---------------------------------
  C     -1.895972   -0.000170    0.279049
  C     -1.187312   -1.253585   -0.227018
  C      0.276196   -1.252868    0.205245
  C      0.986642    0.000139   -0.313935
  C      0.275946    1.252991    0.205263
  C     -1.187613    1.253462   -0.226973
  O      2.366433    0.000038    0.008122
  H     -1.896620   -0.000243    1.371195
  H     -2.934113   -0.000250   -0.057099
  H     -1.683148   -2.145308    0.160062
  H     -1.240936   -1.285397   -1.317330
  H      0.334530   -1.268690    1.296651
  H      0.787668   -2.139478   -0.174249
  H      0.967598    0.000274   -1.410301
  H      0.334444    1.268995    1.296746
  H      0.787151    2.139762   -0.174440
  H     -1.683670    2.145020    0.160200
  H     -1.241219    1.285291   -1.317348
  H      2.461765   -0.000217    0.970905

 Total Charge           Charge          ....    0
 Multiplicity           Mult            ....    1
 Number of Electrons    NEL             ....   56
 Basis Dimension        Dim             ....  122

ORBITAL ENERGIES
----------------

  NO   OCC          E(Eh)            E(eV)
   0   2.0000     -18.735948      -509.8311
   1   2.0000      -9.931326      -270.2451
   2   2.0000      -9.884801      -268.9791
   3   2.0000      -9.884777      -268.9785
   4   2.0000      -9.883514      -268.9441
   5   2.0000      -9.880739      -268.8686
   6   2.0000      -9.880714      -268.8679
   7   2.0000      -0.913409       -24.8551
   8   2.0000      -0.750065       -20.4103
   9   2.0000      -0.668574       -18.1928
  10   2.0000      -0.653489       -17.7823
  11   2.0000      -0.545717       -14.8497
  12   2.0000      -0.544305       -14.8113
  13   2.0000      -0.507237       -13.8026
  14   2.0000      -0.452212       -12.3053
  15   2.0000      -0.409193       -11.1347
  16   2.0000      -0.399771       -10.8783
  17   2.0000      -0.398357       -10.8399
  18   2.0000      -0.371342       -10.1047
  19   2.0000      -0.350932        -9.5493
  20   2.0000      -0.336786        -9.1644
  21   2.0000      -0.321956        -8.7609
  22   2.0000      -0.306117        -8.3299
  23   2.0000      -0.292311        -7.9542
  24   2.0000      -0.287301        -7.8179
  25   2.0000      -0.271414        -7.3855
  26   2.0000      -0.256442        -6.9781
  27   2.0000      -0.205506        -5.5921
  28   0.0000       0.032296         0.8788
  29   0.0000       0.035725         0.9721
  30   0.0000       0.051173         1.3925
  31   0.0000       0.070539         1.9195
  32   0.0000       0.091657         2.4941

MULLIKEN ATOMIC CHARGES
-----------------------
   0 C :   -0.156972
   1 C :   -0.158608
   2 C :   -0.132206
   3 C :    0.018466
   4 C :   -0.132260
   5 C :   -0.158629
   6 O :   -0.420090
   7 H :    0.074589
   8 H :    0.086380
   9 H :    0.086908
  10 H :    0.078641
  11 H :    0.057129
  12 H :    0.090125
  13 H :    0.063944
  14 H :    0.057156
  15 H :    0.090131
  16 H :    0.086923
  17 H :    0.078660
  18 H :    0.289714
Sum of atomic charges:   -0.0000000

LOEWDIN ATOMIC CHARGES
----------------------
   0 C :   -0.228166
   1 C :   -0.226488
   2 C :   -0.238694
   3 C :   -0.057473
   4 C :   -0.238679
   5 C :   -0.226477
   6 O :   -0.327294
   7 H :    0.113742
   8 H :    0.117279
   9 H :    0.117438
  10 H :    0.115912
  11 H :    0.108390
  12 H :    0.119324
  13 H :    0.111600
  14 H :    0.108382
  15 H :    0.119318
  16 H :    0.117444
  17 H :    0.115912
  18 H :    0.278531

  Mayer bond orders larger than 0.100000
B(  0-C ,  1-C ) :   1.1315 B(  0-C ,  5-C ) :   1.1315 B(  0-C ,  7-H ) :   0.9167
B(  0-C ,  8-H ) :   0.9185 B(  1-C ,  2-C ) :   1.1116 B(  1-C ,  9-H ) :   0.9167
B(  1-C , 10-H ) :   0.9153 B(  2-C ,  3-C ) :   1.0832 B(  2-C , 11-H ) :   0.9025
B(  2-C , 12-H ) :   0.9120 B(  3-C ,  4-C ) :   1.0831 B(  3-C ,  6-O ) :   1.0472
B(  3-C , 13-H ) :   0.8945 B(  4-C ,  5-C ) :   1.1116 B(  4-C , 14-H ) :   0.9026
B(  4-C , 15-H ) :   0.9120 B(  5-C , 16-H ) :   0.9167 B(  5-C , 17-H ) :   0.9153
B(  6-O , 18-H ) :   0.8553

Dispersion correction           -0.016220198
FINAL SINGLE POINT ENERGY      -310.346701547942

DIPOLE MOMENT
-------------

Method             : SCF
Type of density    : Electron Density
Multiplicity       :   1
Irrep              :   0
Energy             :  -310.4198141269300777 Eh
Relativity type    :
Basis              : AO
                                X                 Y                 Z
Electronic contribution:      4.194128877       0.000115914      -0.344405841
Nuclear contribution   :     -4.661867359      -0.000225692       0.755334927
                        -----------------------------------------
Total Dipole Moment    :     -0.467738483      -0.000109778       0.410929085
                        -----------------------------------------
Magnitude (a.u.)       :      0.622609037
Magnitude (Debye)      :      1.582546406

Rotational constants in cm-1:             0.144373             0.074578             0.054317
Rotational constants in MHz :          4328.208559          2235.785699          1628.387277

                             ****ORCA TERMINATED NORMALLY****
TOTAL RUN TIME: 0 days 0 hours 0 minutes 29 seconds 76 msec
