                         Program Version 6.0.0  -   RELEASE  -
|  1> ! pbe def2-sv(p) def2/J RI DEFGRID1 loosescf d4 GCP(DFT/SV(P)) printgap
|  2> %output
|  3>     printlevel normal
|  4> end
|  5> * xyz 0 1
|  6> C -4.0536573436 -0.3905969144 -0.0031451688
|  7> C -3.9192072596 0.9899890665 -0.00243664
|  8> C -2.6587240071 1.5588778045 -0.0005260749
|  9> C -1.5171958245 0.759681378 0.0006194948
| 10> C -1.653110937 -0.6354995801 0.000142829
| 11> C -2.9274755305 -1.194662039 -0.001732155
| 12> C -0.4752604345 -1.5317698219 0.0015869783
| 13> O -0.6129197819 -2.7586938699 0.0032996637
| 14> C 0.8281073666 -0.8921311174 0.0008409922
| 15> C 1.9862655551 -1.6812912763 7.64915e-05
| 16> C 3.2380343451 -1.1222422355 -0.0012004958
| 17> C 3.3983902149 0.27667237 -0.0016016317
| 18> C 2.2389584163 1.071913005 -0.0003473655
| 19> C 0.9764430087 0.5086234781 0.0007920591
| 20> C -0.1928292173 1.4057685554 0.0020803091
| 21> O -0.0724017219 2.6270326473 0.0039945177
| 22> N 4.6184857039 0.8386827573 -0.0026293928
| 23> H -5.0342512118 -0.8400796841 -0.0047736336
| 24> H -4.7943822207 1.6203811045 -0.0033855912
| 25> H -2.5273693009 2.6309163866 6.30417e-05
| 26> H -3.0071024167 -2.271898558 -0.0021226156
| 27> H 1.8581879072 -2.7538275763 0.0001980921
| 28> H 4.1126937248 -1.7537056383 -0.0020228865
| 29> H 2.316233715 2.1495036858 -0.0003418274
| 30> H 4.7130170547 1.838287748 -0.004244978
| 31> H 5.4408304768 0.2624287356 -0.0048157014
| 32> *
| 33>
| 34>                          ****END OF INPUT****

CARTESIAN COORDINATES (ANGSTROEM)
---------------------------------
  C     -4.053657   -0.390597   -0.003145
  C     -3.919207    0.989989   -0.002437
  C     -2.658724    1.558878   -0.000526
  C     -1.517196    0.759681    0.000619
  C     -1.653111   -0.635500    0.000143
  C     -2.927476   -1.194662   -0.001732
  C     -0.475260   -1.531770    0.001587
  O     -0.612920   -2.758694    0.003300
  C      0.828107   -0.892131    0.000841
  C      1.986266   -1.681291    0.000076
  C      3.238034   -1.122242   -0.001200
  C      3.398390    0.276672   -0.001602
  C      2.238958    1.071913   -0.000347
  C      0.976443    0.508623    0.000792
  C     -0.192829    1.405769    0.002080
  O     -0.072402    2.627033    0.003995
  N      4.618486    0.838683   -0.002629
  H     -5.034251   -0.840080   -0.004774
  H     -4.794382    1.620381   -0.003386
  H     -2.527369    2.630916    0.000063
  H     -3.007102   -2.271899   -0.002123
  H      1.858188   -2.753828    0.000198
  H      4.112694   -1.753706   -0.002023
  H      2.316234    2.149504   -0.000342
  H      4.713017    1.838288   -0.004245
  H      5.440830    0.262429   -0.004816

 Total Charge           Charge          ....    0
 Multiplicity           Mult            ....    1
 Number of Electrons    NEL             ....  116
 Basis Dimension        Dim             ....  256

ORBITAL ENERGIES
----------------

  NO   OCC          E(Eh)            E(eV)
   0   2.0000     -18.744537      -510.0648
   1   2.0000     -18.733769      -509.7718
   2   2.0000     -14.026318      -381.6755
   3   2.0000      -9.976675      -271.4791
   4   2.0000      -9.966281      -271.1963
   5   2.0000      -9.959795      -271.0198
   6   2.0000      -9.912039      -269.7203
   7   2.0000      -9.910188      -269.6699
   8   2.0000      -9.909171      -269.6423
   9   2.0000      -9.905806      -269.5507
  10   2.0000      -9.905477      -269.5417
  11   2.0000      -9.905178      -269.5336
  12   2.0000      -9.902761      -269.4678
  13   2.0000      -9.902647      -269.4647
  14   2.0000      -9.902032      -269.4480
  15   2.0000      -9.900413      -269.4039
  16   2.0000      -9.899092      -269.3680
  17   2.0000      -0.938162       -25.5287
  18   2.0000      -0.924335       -25.1524
  19   2.0000      -0.869223       -23.6528
  20   2.0000      -0.793409       -21.5898
  21   2.0000      -0.778548       -21.1854
  22   2.0000      -0.717357       -19.5203
  23   2.0000      -0.687724       -18.7139
  24   2.0000      -0.684685       -18.6312
  25   2.0000      -0.672255       -18.2930
  26   2.0000      -0.607137       -16.5210
  27   2.0000      -0.593394       -16.1471
  28   2.0000      -0.570124       -15.5139
  29   2.0000      -0.549369       -14.9491
  30   2.0000      -0.518360       -14.1053
  31   2.0000      -0.506423       -13.7805
  32   2.0000      -0.499819       -13.6008
  33   2.0000      -0.482838       -13.1387
  34   2.0000      -0.450571       -12.2607
  35   2.0000      -0.427315       -11.6278
  36   2.0000      -0.423123       -11.5138
  37   2.0000      -0.416529       -11.3343
  38   2.0000      -0.396183       -10.7807
  39   2.0000      -0.388430       -10.5697
  40   2.0000      -0.384304       -10.4574
  41   2.0000      -0.381368       -10.3775
  42   2.0000      -0.370882       -10.0922
  43   2.0000      -0.367992       -10.0136
  44   2.0000      -0.363064        -9.8795
  45   2.0000      -0.352683        -9.5970
  46   2.0000      -0.352537        -9.5930
  47   2.0000      -0.328307        -8.9337
  48   2.0000      -0.321957        -8.7609
  49   2.0000      -0.315740        -8.5917
  50   2.0000      -0.302825        -8.2403
  51   2.0000      -0.284894        -7.7524
  52   2.0000      -0.244814        -6.6617
  53   2.0000      -0.241761        -6.5786
  54   2.0000      -0.236558        -6.4371
  55   2.0000      -0.211939        -5.7671
  56   2.0000      -0.198657        -5.4057
  57   2.0000      -0.195553        -5.3213
  58   0.0000      -0.120867        -3.2889
  59   0.0000      -0.078841        -2.1454
  60   0.0000      -0.043617        -1.1869
  61   0.0000      -0.034326        -0.9340
  62   0.0000       0.015084         0.4105

MULLIKEN ATOMIC CHARGES
-----------------------
   0 C :   -0.017691
   1 C :   -0.020208
   2 C :   -0.129411
   3 C :    0.034423
   4 C :    0.039623
   5 C :   -0.133597
   6 C :    0.090776
   7 O :   -0.166052
   8 C :    0.035222
   9 C :   -0.132702
  10 C :   -0.108224
  11 C :    0.221769
  12 C :   -0.247760
  13 C :    0.054360
  14 C :    0.094397
  15 O :   -0.150305
  16 N :   -0.292389
  17 H :    0.061992
  18 H :    0.061247
  19 H :    0.056870
  20 H :    0.058541
  21 H :    0.056563
  22 H :    0.030483
  23 H :    0.031959
  24 H :    0.236914
  25 H :    0.233201
Sum of atomic charges:    0.0000000

LOEWDIN ATOMIC CHARGES
----------------------
   0 C :   -0.104328
   1 C :   -0.108887
   2 C :   -0.084770
   3 C :   -0.055779
   4 C :   -0.045948
   5 C :   -0.086925
   6 C :    0.049295
   7 O :   -0.148683
   8 C :   -0.085352
   9 C :   -0.072776
  10 C :   -0.146557
  11 C :    0.009101
  12 C :   -0.125581
  13 C :   -0.044398
  14 C :    0.061384
  15 O :   -0.130771
  16 N :   -0.273053
  17 H :    0.128364
  18 H :    0.128126
  19 H :    0.134593
  20 H :    0.135621
  21 H :    0.136479
  22 H :    0.123516
  23 H :    0.130468
  24 H :    0.239574
  25 H :    0.237288

  Mayer bond orders larger than 0.100000
B(  0-C ,  1-C ) :   1.3311 B(  0-C ,  5-C ) :   1.3284 B(  0-C , 17-H ) :   0.9669
B(  1-C ,  2-C ) :   1.3351 B(  1-C , 18-H ) :   0.9670 B(  2-C ,  3-C ) :   1.3795
B(  2-C , 19-H ) :   0.9561 B(  3-C ,  4-C ) :   1.3313 B(  3-C , 14-C ) :   0.9531
B(  4-C ,  5-C ) :   1.3908 B(  4-C ,  6-C ) :   0.9356 B(  5-C , 20-H ) :   0.9542
B(  6-C ,  7-O ) :   2.1382 B(  6-C ,  8-C ) :   0.9974 B(  8-C ,  9-C ) :   1.3287
B(  8-C , 13-C ) :   1.2971 B(  9-C , 10-C ) :   1.3834 B(  9-C , 21-H ) :   0.9536
B( 10-C , 11-C ) :   1.2460 B( 10-C , 22-H ) :   0.9666 B( 11-C , 12-C ) :   1.1931
B( 11-C , 16-N ) :   1.3270 B( 12-C , 13-C ) :   1.4115 B( 12-C , 23-H ) :   0.9573
B( 13-C , 14-C ) :   0.9406 B( 14-C , 15-O ) :   2.1620 B( 16-N , 24-H ) :   0.8714
B( 16-N , 25-H ) :   0.8712

Dispersion correction           -0.037636779
FINAL SINGLE POINT ENERGY      -742.630420722085

DIPOLE MOMENT
-------------

Method             : SCF
Type of density    : Electron Density
Multiplicity       :   1
Irrep              :   0
Energy             :  -742.6943615207685525 Eh
Relativity type    :
Basis              : AO
                                X                 Y                 Z
Electronic contribution:     -1.459704416      -0.336485267       0.013187771
Nuclear contribution   :      2.902795783       0.830133671      -0.020026606
                        -----------------------------------------
Total Dipole Moment    :      1.443091367       0.493648404      -0.006838836
                        -----------------------------------------
Magnitude (a.u.)       :      1.525204318
Magnitude (Debye)      :      3.876761284

Rotational constants in cm-1:             0.035375             0.011448             0.008649
Rotational constants in MHz :          1060.515100           343.195496           259.287333

                             ****ORCA TERMINATED NORMALLY****
TOTAL RUN TIME: 0 days 0 hours 0 minutes 18 seconds 777 msec
