                         Program Version 6.0.0  -   RELEASE  -
|  1> ! pbe def2-sv(p) def2/J RI DEFGRID1 loosescf d4 GCP(DFT/SV(P)) printgap
|  2> %output
|  3>     printlevel normal
|  4> end
|  5> * xyz 0 1
|  6> C -1.8219487292 -0.8566222946 -0.8751175478
|  7> C -1.3377418929 -0.1256985574 0.3962724485
|  8> H -2.1699654845 -0.0514862411 1.104510495
|  9> C -0.8453836401 1.3082863695 0.0795604668
| 10> H -1.1428111089 1.5906943449 -0.9354685691
| 11> C 0.6890565696 1.3713778299 0.1515011949
| 12> H 0.9998927066 1.4773422826 1.204462229
| 13> C 1.3070929291 0.0713621232 -0.381382121
| 14> H 0.9734459637 -0.0931899115 -1.4157954043
| 15> C 0.8590699414 -1.1105223466 0.5073815152
| 16> H 1.5849858994 -1.2130119489 1.3283540398
| 17> O -0.3708228139 -0.8736053741 1.1300423502
| 18> O 0.8824724155 -2.3178641167 -0.1978516338
| 19> O 2.7046097096 0.2334157268 -0.3494927707
| 20> O 1.1208358774 2.4800202088 -0.591740782
| 21> O -1.4594203263 2.2605261937 0.9054026064
| 22> O -1.8804459037 -2.2525127768 -0.7036413447
| 23> H -1.1296307956 -0.6918062663 -1.7028681287
| 24> H -2.7986439209 -0.4496876322 -1.1569131613
| 25> H -0.0259682655 -2.5406919438 -0.488792969
| 26> H 3.1312665317 -0.5599667808 -0.7024320273
| 27> H 2.0882188647 2.4427871237 -0.6548629758
| 28> H -1.1290550228 2.1778974086 1.8122204548
| 29> H -2.5090880164 -2.4712569627 -0.0003423772
| 30> *
| 31>
| 32>                          ****END OF INPUT****

CARTESIAN COORDINATES (ANGSTROEM)
---------------------------------
  C     -1.821949   -0.856622   -0.875118
  C     -1.337742   -0.125699    0.396272
  H     -2.169965   -0.051486    1.104510
  C     -0.845384    1.308286    0.079560
  H     -1.142811    1.590694   -0.935469
  C      0.689057    1.371378    0.151501
  H      0.999893    1.477342    1.204462
  C      1.307093    0.071362   -0.381382
  H      0.973446   -0.093190   -1.415795
  C      0.859070   -1.110522    0.507382
  H      1.584986   -1.213012    1.328354
  O     -0.370823   -0.873605    1.130042
  O      0.882472   -2.317864   -0.197852
  O      2.704610    0.233416   -0.349493
  O      1.120836    2.480020   -0.591741
  O     -1.459420    2.260526    0.905403
  O     -1.880446   -2.252513   -0.703641
  H     -1.129631   -0.691806   -1.702868
  H     -2.798644   -0.449688   -1.156913
  H     -0.025968   -2.540692   -0.488793
  H      3.131267   -0.559967   -0.702432
  H      2.088219    2.442787   -0.654863
  H     -1.129055    2.177897    1.812220
  H     -2.509088   -2.471257   -0.000342

 Total Charge           Charge          ....    0
 Multiplicity           Mult            ....    1
 Number of Electrons    NEL             ....   96
 Basis Dimension        Dim             ....  192

ORBITAL ENERGIES
----------------

  NO   OCC          E(Eh)            E(eV)
   0   2.0000     -18.785366      -511.1758
   1   2.0000     -18.773482      -510.8524
   2   2.0000     -18.764404      -510.6054
   3   2.0000     -18.750251      -510.2203
   4   2.0000     -18.744932      -510.0755
   5   2.0000     -18.737053      -509.8611
   6   2.0000      -9.979378      -271.5527
   7   2.0000      -9.954216      -270.8680
   8   2.0000      -9.952400      -270.8186
   9   2.0000      -9.948072      -270.7008
  10   2.0000      -9.945172      -270.6219
  11   2.0000      -9.941587      -270.5243
  12   2.0000      -0.982559       -26.7368
  13   2.0000      -0.953720       -25.9521
  14   2.0000      -0.943716       -25.6798
  15   2.0000      -0.934303       -25.4237
  16   2.0000      -0.914042       -24.8723
  17   2.0000      -0.897675       -24.4270
  18   2.0000      -0.711791       -19.3688
  19   2.0000      -0.691126       -18.8065
  20   2.0000      -0.630631       -17.1604
  21   2.0000      -0.590527       -16.0690
  22   2.0000      -0.574679       -15.6378
  23   2.0000      -0.527688       -14.3591
  24   2.0000      -0.504055       -13.7160
  25   2.0000      -0.493639       -13.4326
  26   2.0000      -0.489238       -13.3128
  27   2.0000      -0.447906       -12.1881
  28   2.0000      -0.442457       -12.0399
  29   2.0000      -0.435839       -11.8598
  30   2.0000      -0.426889       -11.6162
  31   2.0000      -0.407807       -11.0970
  32   2.0000      -0.401385       -10.9222
  33   2.0000      -0.388302       -10.5662
  34   2.0000      -0.362845        -9.8735
  35   2.0000      -0.355517        -9.6741
  36   2.0000      -0.319664        -8.6985
  37   2.0000      -0.314651        -8.5621
  38   2.0000      -0.308244        -8.3877
  39   2.0000      -0.301237        -8.1971
  40   2.0000      -0.289924        -7.8892
  41   2.0000      -0.276239        -7.5168
  42   2.0000      -0.262542        -7.1441
  43   2.0000      -0.247034        -6.7222
  44   2.0000      -0.239379        -6.5138
  45   2.0000      -0.224086        -6.0977
  46   2.0000      -0.208178        -5.6648
  47   2.0000      -0.201755        -5.4900
  48   0.0000       0.005919         0.1611
  49   0.0000       0.023272         0.6333
  50   0.0000       0.028223         0.7680
  51   0.0000       0.045173         1.2292
  52   0.0000       0.058934         1.6037

MULLIKEN ATOMIC CHARGES
-----------------------
   0 C :   -0.021856
   1 C :    0.019485
   2 H :    0.064720
   3 C :    0.080463
   4 H :    0.077868
   5 C :    0.074938
   6 H :    0.044537
   7 C :   -0.017943
   8 H :    0.060545
   9 C :    0.212014
  10 H :    0.061087
  11 O :   -0.302482
  12 O :   -0.434113
  13 O :   -0.425014
  14 O :   -0.411750
  15 O :   -0.413587
  16 O :   -0.426056
  17 H :    0.111219
  18 H :    0.106595
  19 H :    0.304432
  20 H :    0.313414
  21 H :    0.306279
  22 H :    0.299964
  23 H :    0.315241
Sum of atomic charges:   -0.0000000

LOEWDIN ATOMIC CHARGES
----------------------
   0 C :   -0.149343
   1 C :   -0.081947
   2 H :    0.114626
   3 C :   -0.062294
   4 H :    0.122951
   5 C :   -0.066728
   6 H :    0.101595
   7 C :   -0.100568
   8 H :    0.101767
   9 C :   -0.006310
  10 H :    0.104698
  11 O :   -0.143126
  12 O :   -0.342341
  13 O :   -0.319707
  14 O :   -0.317029
  15 O :   -0.308520
  16 O :   -0.312804
  17 H :    0.115319
  18 H :    0.116762
  19 H :    0.272443
  20 H :    0.295131
  21 H :    0.285271
  22 H :    0.284368
  23 H :    0.295785

  Mayer bond orders larger than 0.100000
B(  0-C ,  1-C ) :   1.0000 B(  0-C , 16-O ) :   1.0150 B(  0-C , 17-H ) :   0.9168
B(  0-C , 18-H ) :   0.9137 B(  1-C ,  2-H ) :   0.8870 B(  1-C ,  3-C ) :   0.9556
B(  1-C , 11-O ) :   1.0599 B(  3-C ,  4-H ) :   0.8798 B(  3-C ,  5-C ) :   1.0169
B(  3-C , 15-O ) :   1.0483 B(  5-C ,  6-H ) :   0.8577 B(  5-C ,  7-C ) :   1.0084
B(  5-C , 14-O ) :   1.1009 B(  7-C ,  8-H ) :   0.8787 B(  7-C ,  9-C ) :   0.9538
B(  7-C , 13-O ) :   1.0609 B(  9-C , 10-H ) :   0.8851 B(  9-C , 11-O ) :   1.0521
B(  9-C , 12-O ) :   1.1223 B( 12-O , 19-H ) :   0.7853 B( 13-O , 20-H ) :   0.8399
B( 14-O , 21-H ) :   0.8331 B( 15-O , 22-H ) :   0.8493 B( 16-O , 19-H ) :   0.1249
B( 16-O , 23-H ) :   0.8404

Dispersion correction           -0.025011157
FINAL SINGLE POINT ENERGY      -685.691420445340

DIPOLE MOMENT
-------------

Method             : SCF
Type of density    : Electron Density
Multiplicity       :   1
Irrep              :   0
Energy             :  -685.8231240693615973 Eh
Relativity type    :
Basis              : AO
                                X                 Y                 Z
Electronic contribution:      1.576136546      -0.093902247       1.639813339
Nuclear contribution   :     -1.981045245      -0.365697341      -1.505655346
                        -----------------------------------------
Total Dipole Moment    :     -0.404908699      -0.459599588       0.134157994
                        -----------------------------------------
Magnitude (a.u.)       :      0.627041629
Magnitude (Debye)      :      1.593813157

Rotational constants in cm-1:             0.038513             0.029680             0.019766
Rotational constants in MHz :          1154.585650           889.778507           592.573517

                             ****ORCA TERMINATED NORMALLY****
TOTAL RUN TIME: 0 days 0 hours 0 minutes 11 seconds 740 msec
