                         Program Version 6.0.0  -   RELEASE  -
|  1> ! wb97x-v def2-tzvp def2/J RIJCOSX DEFGRID2 scfconv7 GCP(DFT/TZ) printgap
|  2> %output
|  3>     printlevel normal
|  4> end
|  5> * xyz 0 1
|  6> C -1.5871550140323725 -0.1613810133303392 0.5045055985251053
|  7> C -0.6677946939600811 0.4946053813268871 -0.5220246417237272
|  8> C 0.6778107612915333 -0.2003863821631653 -0.6570073939187847
|  9> O 1.439266624203771 -0.1914003613914802 0.5687687567982962
| 10> H -2.5571669262516004 0.34492835951803974 0.5445487804516225
| 11> H -1.7659196632876535 -1.2132402472721513 0.25086871158426477
| 12> H -1.1515045330578784 -0.12662098049812343 1.508491962396101
| 13> H -0.49886877921663586 1.5484436012896308 -0.26241398325606546
| 14> H -1.1439955625573133 0.48783973376990447 -1.5107919916794066
| 15> H 0.5367301517999545 -1.2581126851095 -0.90638523361348
| 16> H 1.2644656622550752 0.2628464182437291 -1.4629360839811147
| 17> H 1.5842634606977661 0.734545590413174 0.8047228007422161
| 18> *
| 19>
| 20>                          ****END OF INPUT****

CARTESIAN COORDINATES (ANGSTROEM)
---------------------------------
  C     -1.587155   -0.161381    0.504506
  C     -0.667795    0.494605   -0.522025
  C      0.677811   -0.200386   -0.657007
  O      1.439267   -0.191400    0.568769
  H     -2.557167    0.344928    0.544549
  H     -1.765920   -1.213240    0.250869
  H     -1.151505   -0.126621    1.508492
  H     -0.498869    1.548444   -0.262414
  H     -1.143996    0.487840   -1.510792
  H      0.536730   -1.258113   -0.906385
  H      1.264466    0.262846   -1.462936
  H      1.584263    0.734546    0.804723

 Total Charge           Charge          ....    0
 Multiplicity           Mult            ....    1
 Number of Electrons    NEL             ....   34
 Basis Dimension        Dim             ....  172

ORBITAL ENERGIES
----------------

  NO   OCC          E(Eh)            E(eV)
   0   2.0000     -21.667855      -589.6123
   1   2.0000     -12.090023      -328.9863
   2   2.0000     -12.046622      -327.8052
   3   2.0000     -12.033661      -327.4526
   4   2.0000      -1.665286       -45.3147
   5   2.0000      -1.291520       -35.1441
   6   2.0000      -1.188468       -32.3398
   7   2.0000      -1.094803       -29.7911
   8   2.0000      -1.003802       -27.3148
   9   2.0000      -0.952052       -25.9066
  10   2.0000      -0.930297       -25.3147
  11   2.0000      -0.866754       -23.5856
  12   2.0000      -0.847130       -23.0516
  13   2.0000      -0.832373       -22.6500
  14   2.0000      -0.783957       -21.3326
  15   2.0000      -0.775322       -21.0976
  16   2.0000      -0.763765       -20.7831
  17   0.0000      -0.138620        -3.7721
  18   0.0000      -0.049697        -1.3523
  19   0.0000      -0.008896        -0.2421
  20   0.0000      -0.002129        -0.0579
  21   0.0000       0.008434         0.2295

MULLIKEN ATOMIC CHARGES
-----------------------
   0 C :   -0.309373
   1 C :   -0.202226
   2 C :   -0.013580
   3 O :   -0.453867
   4 H :    0.111051
   5 H :    0.100292
   6 H :    0.111497
   7 H :    0.087553
   8 H :    0.089487
   9 H :    0.091315
  10 H :    0.093426
  11 H :    0.294424
Sum of atomic charges:   -0.0000000

LOEWDIN ATOMIC CHARGES
----------------------
   0 C :   -0.307720
   1 C :   -0.309134
   2 C :   -0.334961
   3 O :   -0.064742
   4 H :    0.115205
   5 H :    0.117392
   6 H :    0.118504
   7 H :    0.127811
   8 H :    0.135296
   9 H :    0.124483
  10 H :    0.112231
  11 H :    0.165635

  Mayer bond orders larger than 0.100000
B(  0-C ,  1-C ) :   0.9814 B(  0-C ,  4-H ) :   0.9803 B(  0-C ,  5-H ) :   0.9771
B(  0-C ,  6-H ) :   0.9748 B(  1-C ,  2-C ) :   0.9994 B(  1-C ,  7-H ) :   0.9754
B(  1-C ,  8-H ) :   0.9663 B(  2-C ,  3-O ) :   0.9942 B(  2-C ,  9-H ) :   0.9673
B(  2-C , 10-H ) :   0.9771 B(  3-O , 11-H ) :   0.9067

FINAL SINGLE POINT ENERGY      -194.360737277715

DIPOLE MOMENT
-------------

Method             : SCF
Type of density    : Electron Density
Multiplicity       :   1
Irrep              :   0
Energy             :  -194.3690113281145670 Eh
Relativity type    :
Basis              : AO
                                X                 Y                 Z
Electronic contribution:      3.252955592      -0.266019852       0.617667575
Nuclear contribution   :     -3.520273836       0.814608363      -0.956036736
                        -----------------------------------------
Total Dipole Moment    :     -0.267318244       0.548588511      -0.338369161
                        -----------------------------------------
Magnitude (a.u.)       :      0.697783697
Magnitude (Debye)      :      1.773625204

Rotational constants in cm-1:             0.472147             0.166968             0.142468
Rotational constants in MHz :         14154.614281          5005.584887          4271.070075

                             ****ORCA TERMINATED NORMALLY****
TOTAL RUN TIME: 0 days 0 hours 0 minutes 40 seconds 44 msec
