                         Program Version 6.0.0  -   RELEASE  -
|  1> ! wb97x-v def2-tzvp def2/J RIJCOSX DEFGRID2 scfconv7 GCP(DFT/TZ) printgap
|  2> %output
|  3>     printlevel normal
|  4> end
|  5> %cpcm
|  6>     smd true
|  7>     smdsolvent "water"
|  8> end
|  9> * xyz 0 1
| 10> C -1.5871550140323725 -0.1613810133303392 0.5045055985251053
| 11> C -0.6677946939600811 0.4946053813268871 -0.5220246417237272
| 12> C 0.6778107612915333 -0.2003863821631653 -0.6570073939187847
| 13> O 1.439266624203771 -0.1914003613914802 0.5687687567982962
| 14> H -2.5571669262516004 0.34492835951803974 0.5445487804516225
| 15> H -1.7659196632876535 -1.2132402472721513 0.25086871158426477
| 16> H -1.1515045330578784 -0.12662098049812343 1.508491962396101
| 17> H -0.49886877921663586 1.5484436012896308 -0.26241398325606546
| 18> H -1.1439955625573133 0.48783973376990447 -1.5107919916794066
| 19> H 0.5367301517999545 -1.2581126851095 -0.90638523361348
| 20> H 1.2644656622550752 0.2628464182437291 -1.4629360839811147
| 21> H 1.5842634606977661 0.734545590413174 0.8047228007422161
| 22> *
| 23>
| 24>                          ****END OF INPUT****

CARTESIAN COORDINATES (ANGSTROEM)
---------------------------------
  C     -1.587155   -0.161381    0.504506
  C     -0.667795    0.494605   -0.522025
  C      0.677811   -0.200386   -0.657007
  O      1.439267   -0.191400    0.568769
  H     -2.557167    0.344928    0.544549
  H     -1.765920   -1.213240    0.250869
  H     -1.151505   -0.126621    1.508492
  H     -0.498869    1.548444   -0.262414
  H     -1.143996    0.487840   -1.510792
  H      0.536730   -1.258113   -0.906385
  H      1.264466    0.262846   -1.462936
  H      1.584263    0.734546    0.804723

 Total Charge           Charge          ....    0
 Multiplicity           Mult            ....    1
 Number of Electrons    NEL             ....   34
 Basis Dimension        Dim             ....  172

ORBITAL ENERGIES
----------------

  NO   OCC          E(Eh)            E(eV)
   0   2.0000     -21.670497      -589.6842
   1   2.0000     -12.082437      -328.7798
   2   2.0000     -12.034387      -327.4723
   3   2.0000     -12.025586      -327.2328
   4   2.0000      -1.668198       -45.3940
   5   2.0000      -1.282403       -34.8960
   6   2.0000      -1.183117       -32.1942
   7   2.0000      -1.089445       -29.6453
   8   2.0000      -1.003876       -27.3168
   9   2.0000      -0.952671       -25.9235
  10   2.0000      -0.930575       -25.3222
  11   2.0000      -0.858439       -23.3593
  12   2.0000      -0.841632       -22.9020
  13   2.0000      -0.824472       -22.4350
  14   2.0000      -0.776126       -21.1195
  15   2.0000      -0.767949       -20.8970
  16   2.0000      -0.753172       -20.4949
  17   0.0000      -0.133100        -3.6218
  18   0.0000      -0.027037        -0.7357
  19   0.0000       0.010735         0.2921
  20   0.0000       0.019585         0.5329
  21   0.0000       0.037840         1.0297

MULLIKEN ATOMIC CHARGES
-----------------------
   0 C :   -0.379879
   1 C :   -0.194079
   2 C :   -0.021418
   3 O :   -0.568997
   4 H :    0.129237
   5 H :    0.118623
   6 H :    0.114110
   7 H :    0.110061
   8 H :    0.106710
   9 H :    0.113212
  10 H :    0.114846
  11 H :    0.357575
Sum of atomic charges:   -0.0000000

LOEWDIN ATOMIC CHARGES
----------------------
   0 C :   -0.317188
   1 C :   -0.305183
   2 C :   -0.333151
   3 O :   -0.108327
   4 H :    0.118921
   5 H :    0.119381
   6 H :    0.115461
   7 H :    0.135167
   8 H :    0.140468
   9 H :    0.127026
  10 H :    0.119249
  11 H :    0.188175

  Mayer bond orders larger than 0.100000
B(  0-C ,  1-C ) :   0.9735 B(  0-C ,  4-H ) :   0.9780 B(  0-C ,  5-H ) :   0.9756
B(  0-C ,  6-H ) :   0.9769 B(  1-C ,  2-C ) :   0.9977 B(  1-C ,  7-H ) :   0.9728
B(  1-C ,  8-H ) :   0.9619 B(  2-C ,  3-O ) :   0.9524 B(  2-C ,  9-H ) :   0.9688
B(  2-C , 10-H ) :   0.9787 B(  3-O , 11-H ) :   0.8695

FINAL SINGLE POINT ENERGY      -194.368280455021

DIPOLE MOMENT
-------------

Method             : SCF
Type of density    : Electron Density
Multiplicity       :   1
Irrep              :   0
Energy             :  -194.3765545054208417 Eh
Relativity type    :
Basis              : AO
                                X                 Y                 Z
Electronic contribution:      3.172414297      -0.045384069       0.458556763
Nuclear contribution   :     -3.520273836       0.814608363      -0.956036736
                        -----------------------------------------
Total Dipole Moment    :     -0.347859539       0.769224295      -0.497479973
                        -----------------------------------------
Magnitude (a.u.)       :      0.979897238
Magnitude (Debye)      :      2.490700841

Rotational constants in cm-1:             0.472147             0.166968             0.142468
Rotational constants in MHz :         14154.614281          5005.584887          4271.070075

                             ****ORCA TERMINATED NORMALLY****
TOTAL RUN TIME: 0 days 0 hours 0 minutes 48 seconds 579 msec
