                         Program Version 6.0.0  -   RELEASE  -
|  1> ! pbe def2-sv(p) def2/J RI DEFGRID1 loosescf d4 GCP(DFT/SV(P)) printgap
|  2> %output
|  3>     printlevel normal
|  4> end
|  5> * xyz 0 1
|  6> C -2.5617652369 -0.8667814577 0.2868655596
|  7> C -1.1306048495 -0.4299544056 0.6325117413
|  8> H -1.0183468119 -0.3787403939 1.7276164244
|  9> C -0.8237693821 0.9599016126 0.0353762441
| 10> H -1.0685368895 0.9520634017 -1.0320986248
| 11> C 0.6652999961 1.2891345176 0.2035960827
| 12> H 0.886794998 1.4144036827 1.2787256522
| 13> C 1.5314549044 0.1357670301 -0.3151077539
| 14> H 1.3852077652 0.0320066504 -1.4000939276
| 15> C 1.0965480314 -1.1789150813 0.3485159537
| 16> H 1.2760922508 -1.1020018499 1.4426413447
| 17> O -0.2680348734 -1.4291395471 0.1183154478
| 18> O 1.8320843965 -2.2049972213 -0.2089028446
| 19> O 2.8689358764 0.4426272776 -0.0148661991
| 20> O 0.945001613 2.4816177453 -0.4815501563
| 21> O -1.6536175225 1.9364008434 0.6024421712
| 22> O -2.7304730138 -1.081832199 -1.0885127058
| 23> H -3.2501324081 -0.0668474159 0.5637619539
| 24> H -2.8029300722 -1.7758029938 0.8516226967
| 25> H 1.465322175 -3.061642008 0.0602149782
| 26> H 3.4347103289 -0.2853905718 -0.3119276653
| 27> H 1.9034220689 2.6270754386 -0.4629404128
| 28> H -1.3376968988 2.1704747983 1.4876255113
| 29> H -2.0786466986 -1.7395791331 -1.3731790085
| 30> *
| 31>
| 32>                          ****END OF INPUT****

CARTESIAN COORDINATES (ANGSTROEM)
---------------------------------
  C     -2.561765   -0.866781    0.286866
  C     -1.130605   -0.429954    0.632512
  H     -1.018347   -0.378740    1.727616
  C     -0.823769    0.959902    0.035376
  H     -1.068537    0.952063   -1.032099
  C      0.665300    1.289135    0.203596
  H      0.886795    1.414404    1.278726
  C      1.531455    0.135767   -0.315108
  H      1.385208    0.032007   -1.400094
  C      1.096548   -1.178915    0.348516
  H      1.276092   -1.102002    1.442641
  O     -0.268035   -1.429140    0.118315
  O      1.832084   -2.204997   -0.208903
  O      2.868936    0.442627   -0.014866
  O      0.945002    2.481618   -0.481550
  O     -1.653618    1.936401    0.602442
  O     -2.730473   -1.081832   -1.088513
  H     -3.250132   -0.066847    0.563762
  H     -2.802930   -1.775803    0.851623
  H      1.465322   -3.061642    0.060215
  H      3.434710   -0.285391   -0.311928
  H      1.903422    2.627075   -0.462940
  H     -1.337697    2.170475    1.487626
  H     -2.078647   -1.739579   -1.373179

 Total Charge           Charge          ....    0
 Multiplicity           Mult            ....    1
 Number of Electrons    NEL             ....   96
 Basis Dimension        Dim             ....  192

ORBITAL ENERGIES
----------------

  NO   OCC          E(Eh)            E(eV)
   0   2.0000     -18.784689      -511.1574
   1   2.0000     -18.777161      -510.9525
   2   2.0000     -18.764815      -510.6166
   3   2.0000     -18.752086      -510.2702
   4   2.0000     -18.746597      -510.1208
   5   2.0000     -18.745332      -510.0864
   6   2.0000      -9.996228      -272.0112
   7   2.0000      -9.947711      -270.6910
   8   2.0000      -9.946112      -270.6475
   9   2.0000      -9.945451      -270.6295
  10   2.0000      -9.940656      -270.4990
  11   2.0000      -9.930101      -270.2118
  12   2.0000      -0.997006       -27.1299
  13   2.0000      -0.947146       -25.7731
  14   2.0000      -0.942381       -25.6435
  15   2.0000      -0.928399       -25.2630
  16   2.0000      -0.917043       -24.9540
  17   2.0000      -0.914412       -24.8824
  18   2.0000      -0.705127       -19.1875
  19   2.0000      -0.695411       -18.9231
  20   2.0000      -0.621083       -16.9005
  21   2.0000      -0.587197       -15.9785
  22   2.0000      -0.561818       -15.2878
  23   2.0000      -0.538722       -14.6594
  24   2.0000      -0.516680       -14.0596
  25   2.0000      -0.493926       -13.4404
  26   2.0000      -0.472659       -12.8617
  27   2.0000      -0.465093       -12.6558
  28   2.0000      -0.447000       -12.1635
  29   2.0000      -0.433323       -11.7913
  30   2.0000      -0.420426       -11.4404
  31   2.0000      -0.412440       -11.2231
  32   2.0000      -0.388669       -10.5762
  33   2.0000      -0.371441       -10.1074
  34   2.0000      -0.358953        -9.7676
  35   2.0000      -0.350899        -9.5484
  36   2.0000      -0.331436        -9.0188
  37   2.0000      -0.329509        -8.9664
  38   2.0000      -0.305949        -8.3253
  39   2.0000      -0.301901        -8.2152
  40   2.0000      -0.277343        -7.5469
  41   2.0000      -0.270322        -7.3558
  42   2.0000      -0.263335        -7.1657
  43   2.0000      -0.249122        -6.7790
  44   2.0000      -0.232200        -6.3185
  45   2.0000      -0.226344        -6.1591
  46   2.0000      -0.217494        -5.9183
  47   2.0000      -0.205615        -5.5951
  48   0.0000       0.013478         0.3667
  49   0.0000       0.021234         0.5778
  50   0.0000       0.026887         0.7316
  51   0.0000       0.045001         1.2245
  52   0.0000       0.057287         1.5589

MULLIKEN ATOMIC CHARGES
-----------------------
   0 C :    0.106842
   1 C :   -0.026803
   2 H :    0.034844
   3 C :    0.081643
   4 H :    0.072584
   5 C :    0.073562
   6 H :    0.033367
   7 C :    0.026165
   8 H :    0.066138
   9 C :    0.182978
  10 H :    0.036488
  11 O :   -0.323697
  12 O :   -0.386733
  13 O :   -0.424687
  14 O :   -0.403744
  15 O :   -0.404658
  16 O :   -0.437593
  17 H :    0.092261
  18 H :    0.074233
  19 H :    0.311379
  20 H :    0.312787
  21 H :    0.306667
  22 H :    0.297926
  23 H :    0.298050
Sum of atomic charges:   -0.0000000

LOEWDIN ATOMIC CHARGES
----------------------
   0 C :   -0.122470
   1 C :   -0.082298
   2 H :    0.096316
   3 C :   -0.066984
   4 H :    0.125058
   5 C :   -0.072870
   6 H :    0.093195
   7 C :   -0.090887
   8 H :    0.111276
   9 C :   -0.005849
  10 H :    0.079667
  11 O :   -0.158045
  12 O :   -0.300239
  13 O :   -0.320774
  14 O :   -0.314922
  15 O :   -0.298012
  16 O :   -0.329450
  17 H :    0.123103
  18 H :    0.097610
  19 H :    0.293307
  20 H :    0.292441
  21 H :    0.287284
  22 H :    0.284233
  23 H :    0.279311

  Mayer bond orders larger than 0.100000
B(  0-C ,  1-C ) :   1.0425 B(  0-C , 16-O ) :   1.0699 B(  0-C , 17-H ) :   0.9101
B(  0-C , 18-H ) :   0.9170 B(  1-C ,  2-H ) :   0.8670 B(  1-C ,  3-C ) :   0.9723
B(  1-C , 11-O ) :   0.9709 B(  3-C ,  4-H ) :   0.8610 B(  3-C ,  5-C ) :   1.0191
B(  3-C , 15-O ) :   1.0396 B(  5-C ,  6-H ) :   0.8650 B(  5-C ,  7-C ) :   1.0083
B(  5-C , 14-O ) :   1.1157 B(  7-C ,  8-H ) :   0.8681 B(  7-C ,  9-C ) :   0.9887
B(  7-C , 13-O ) :   1.0644 B(  9-C , 10-H ) :   0.8855 B(  9-C , 11-O ) :   1.0091
B(  9-C , 12-O ) :   1.1694 B( 12-O , 19-H ) :   0.8367 B( 13-O , 20-H ) :   0.8372
B( 14-O , 21-H ) :   0.8374 B( 15-O , 22-H ) :   0.8465 B( 16-O , 23-H ) :   0.8408

Dispersion correction           -0.023930871
FINAL SINGLE POINT ENERGY      -685.701407208737

DIPOLE MOMENT
-------------

Method             : SCF
Type of density    : Electron Density
Multiplicity       :   1
Irrep              :   0
Energy             :  -685.8312433055031079 Eh
Relativity type    :
Basis              : AO
                                X                 Y                 Z
Electronic contribution:      2.101894937       0.061803783      -1.694828421
Nuclear contribution   :     -1.115527178      -1.136776815       2.640971568
                        -----------------------------------------
Total Dipole Moment    :      0.986367759      -1.074973033       0.946143147
                        -----------------------------------------
Magnitude (a.u.)       :      1.738871827
Magnitude (Debye)      :      4.419860933

Rotational constants in cm-1:             0.038916             0.027269             0.017824
Rotational constants in MHz :          1166.687177           817.513820           534.357824

                             ****ORCA TERMINATED NORMALLY****
TOTAL RUN TIME: 0 days 0 hours 0 minutes 12 seconds 111 msec
