                         Program Version 6.0.0  -   RELEASE  -
|  1> ! pbe def2-sv(p) def2/J RI DEFGRID1 loosescf d4 GCP(DFT/SV(P)) printgap
|  2> %output
|  3>     printlevel normal
|  4> end
|  5> * xyz 0 1
|  6> C -3.2996207961 0.6014622767 -0.4058804828
|  7> C -1.8802941464 0.4856533733 0.0486939059
|  8> C -1.0860842846 1.5141043887 0.3166774509
|  9> C 0.3374550038 1.2702105426 0.708894686
| 10> C 0.9414358853 0.272173289 -0.2972160305
| 11> H 0.82952419 0.7370259659 -1.2864205522
| 12> C 0.1258717542 -1.0327061422 -0.2846670623
| 13> C -1.30447912 -0.8915968648 0.2890178509
| 14> H -1.2536124008 -1.0351012537 1.3779056378
| 15> O -2.1319813537 -1.949920615 -0.1483841696
| 16> C 2.4268430935 0.0313143907 -0.1084948106
| 17> C 3.0224743507 -1.0924228252 -0.4806711191
| 18> C 3.2357574025 1.1650422452 0.4502004069
| 19> H -3.9246099238 -0.1031165062 0.1398295002
| 20> H -3.3818270507 0.369951554 -1.4677405639
| 21> H -3.6668396287 1.6114917753 -0.2469119621
| 22> H -1.4274396533 2.5325190254 0.2101729939
| 23> H 0.8870112714 2.208386564 0.7039525235
| 24> H 0.388781805 0.8403524881 1.713714543
| 25> H 0.0428277319 -1.419579289 -1.3021330899
| 26> H 0.6416049243 -1.7865233744 0.3111439326
| 27> H -2.2211798412 -1.9002741163 -1.1101329382
| 28> H 4.0859853832 -1.2224323295 -0.3692987261
| 29> H 2.4964510861 -1.9248755974 -0.9124252967
| 30> H 2.9632819949 1.3596796907 1.4856507246
| 31> H 4.2951296069 0.9260132743 0.4132988755
| 32> H 3.0651305722 2.073858077 -0.1241456001
| 33> *
| 34>
| 35>                          ****END OF INPUT****

CARTESIAN COORDINATES (ANGSTROEM)
---------------------------------
  C     -3.299621    0.601462   -0.405880
  C     -1.880294    0.485653    0.048694
  C     -1.086084    1.514104    0.316677
  C      0.337455    1.270211    0.708895
  C      0.941436    0.272173   -0.297216
  H      0.829524    0.737026   -1.286421
  C      0.125872   -1.032706   -0.284667
  C     -1.304479   -0.891597    0.289018
  H     -1.253612   -1.035101    1.377906
  O     -2.131981   -1.949921   -0.148384
  C      2.426843    0.031314   -0.108495
  C      3.022474   -1.092423   -0.480671
  C      3.235757    1.165042    0.450200
  H     -3.924610   -0.103117    0.139830
  H     -3.381827    0.369952   -1.467741
  H     -3.666840    1.611492   -0.246912
  H     -1.427440    2.532519    0.210173
  H      0.887011    2.208387    0.703953
  H      0.388782    0.840352    1.713715
  H      0.042828   -1.419579   -1.302133
  H      0.641605   -1.786523    0.311144
  H     -2.221180   -1.900274   -1.110133
  H      4.085985   -1.222432   -0.369299
  H      2.496451   -1.924876   -0.912425
  H      2.963282    1.359680    1.485651
  H      4.295130    0.926013    0.413299
  H      3.065131    2.073858   -0.124146

 Total Charge           Charge          ....    0
 Multiplicity           Mult            ....    1
 Number of Electrons    NEL             ....   84
 Basis Dimension        Dim             ....  186

ORBITAL ENERGIES
----------------

  NO   OCC          E(Eh)            E(eV)
   0   2.0000     -18.743372      -510.0331
   1   2.0000      -9.938291      -270.4347
   2   2.0000      -9.901960      -269.4460
   3   2.0000      -9.897881      -269.3350
   4   2.0000      -9.889320      -269.1021
   5   2.0000      -9.887843      -269.0619
   6   2.0000      -9.885072      -268.9865
   7   2.0000      -9.880219      -268.8544
   8   2.0000      -9.879713      -268.8407
   9   2.0000      -9.877363      -268.7767
  10   2.0000      -9.866445      -268.4796
  11   2.0000      -0.922828       -25.1114
  12   2.0000      -0.766025       -20.8446
  13   2.0000      -0.722525       -19.6609
  14   2.0000      -0.675829       -18.3902
  15   2.0000      -0.656884       -17.8747
  16   2.0000      -0.615811       -16.7571
  17   2.0000      -0.606268       -16.4974
  18   2.0000      -0.554957       -15.1011
  19   2.0000      -0.537640       -14.6299
  20   2.0000      -0.487939       -13.2775
  21   2.0000      -0.460612       -12.5339
  22   2.0000      -0.435843       -11.8599
  23   2.0000      -0.432026       -11.7560
  24   2.0000      -0.404899       -11.0179
  25   2.0000      -0.402226       -10.9451
  26   2.0000      -0.382295       -10.4028
  27   2.0000      -0.378834       -10.3086
  28   2.0000      -0.366880        -9.9833
  29   2.0000      -0.363353        -9.8873
  30   2.0000      -0.356521        -9.7014
  31   2.0000      -0.349449        -9.5090
  32   2.0000      -0.330050        -8.9811
  33   2.0000      -0.322932        -8.7874
  34   2.0000      -0.312614        -8.5067
  35   2.0000      -0.307108        -8.3568
  36   2.0000      -0.288742        -7.8571
  37   2.0000      -0.277910        -7.5623
  38   2.0000      -0.263837        -7.1794
  39   2.0000      -0.221564        -6.0291
  40   2.0000      -0.211492        -5.7550
  41   2.0000      -0.203453        -5.5363
  42   0.0000      -0.013338        -0.3629
  43   0.0000      -0.012661        -0.3445
  44   0.0000       0.025092         0.6828
  45   0.0000       0.040163         1.0929
  46   0.0000       0.053169         1.4468

MULLIKEN ATOMIC CHARGES
-----------------------
   0 C :   -0.217181
   1 C :   -0.090308
   2 C :   -0.200504
   3 C :   -0.047418
   4 C :   -0.129540
   5 H :    0.081234
   6 C :   -0.125188
   7 C :    0.111009
   8 H :    0.075995
   9 O :   -0.416958
  10 C :   -0.066479
  11 C :   -0.224780
  12 C :   -0.223199
  13 H :    0.118137
  14 H :    0.100075
  15 H :    0.100151
  16 H :    0.039093
  17 H :    0.083210
  18 H :    0.088699
  19 H :    0.066747
  20 H :    0.090842
  21 H :    0.293060
  22 H :    0.077887
  23 H :    0.090654
  24 H :    0.116994
  25 H :    0.096620
  26 H :    0.111147
Sum of atomic charges:    0.0000000

LOEWDIN ATOMIC CHARGES
----------------------
   0 C :   -0.327427
   1 C :   -0.083450
   2 C :   -0.157452
   3 C :   -0.216383
   4 C :   -0.127047
   5 H :    0.132942
   6 C :   -0.223147
   7 C :   -0.041899
   8 H :    0.125289
   9 O :   -0.315368
  10 C :   -0.053126
  11 C :   -0.270336
  12 C :   -0.322865
  13 H :    0.131716
  14 H :    0.123745
  15 H :    0.125714
  16 H :    0.115283
  17 H :    0.121572
  18 H :    0.126137
  19 H :    0.115953
  20 H :    0.126600
  21 H :    0.279317
  22 H :    0.116628
  23 H :    0.117730
  24 H :    0.129289
  25 H :    0.123851
  26 H :    0.126734

  Mayer bond orders larger than 0.100000
B(  0-C ,  1-C ) :   1.1376 B(  0-C , 13-H ) :   0.9287 B(  0-C , 14-H ) :   0.9279
B(  0-C , 15-H ) :   0.9386 B(  1-C ,  2-C ) :   1.8689 B(  1-C ,  7-C ) :   1.0204
B(  2-C ,  3-C ) :   1.0731 B(  2-C , 16-H ) :   0.9427 B(  3-C ,  4-C ) :   1.1508
B(  3-C , 17-H ) :   0.8922 B(  3-C , 18-H ) :   0.8719 B(  4-C ,  5-H ) :   0.8515
B(  4-C ,  6-C ) :   1.0933 B(  4-C , 10-C ) :   0.9838 B(  6-C ,  7-C ) :   1.0882
B(  6-C , 19-H ) :   0.9013 B(  6-C , 20-H ) :   0.8924 B(  7-C ,  8-H ) :   0.8520
B(  7-C ,  9-O ) :   1.0637 B(  9-O , 21-H ) :   0.8476 B( 10-C , 11-C ) :   2.0502
B( 10-C , 12-C ) :   1.1310 B( 11-C , 22-H ) :   0.8983 B( 11-C , 23-H ) :   0.9017
B( 12-C , 24-H ) :   0.9192 B( 12-C , 25-H ) :   0.9348 B( 12-C , 26-H ) :   0.9315

Dispersion correction           -0.028166869
FINAL SINGLE POINT ENERGY      -464.780770811456

DIPOLE MOMENT
-------------

Method             : SCF
Type of density    : Electron Density
Multiplicity       :   1
Irrep              :   0
Energy             :  -464.8715931022405812 Eh
Relativity type    :
Basis              : AO
                                X                 Y                 Z
Electronic contribution:     -3.443324694      -2.572593812       0.056601199
Nuclear contribution   :      3.552387990       3.036427871      -0.437078075
                        -----------------------------------------
Total Dipole Moment    :      0.109063296       0.463834059      -0.380476876
                        -----------------------------------------
Magnitude (a.u.)       :      0.609753630
Magnitude (Debye)      :      1.549870558

Rotational constants in cm-1:             0.071275             0.022796             0.018223
Rotational constants in MHz :          2136.785185           683.404160           546.303356

                             ****ORCA TERMINATED NORMALLY****
TOTAL RUN TIME: 0 days 0 hours 0 minutes 12 seconds 162 msec
