                         Program Version 6.0.0  -   RELEASE  -
|  1> ! r2scan-3c def2/J RI DEFGRID2 scfconv6 printgap
|  2> %output
|  3>     printlevel normal
|  4> end
|  5> %cpcm
|  6>     smd true
|  7>     smdsolvent "water"
|  8> end
|  9> * xyz 0 1
| 10> C 2.3563806893 -0.6691786021 0.2164971432
| 11> C 0.857304962 -0.5068396602 0.4597100861
| 12> H 0.6514532751 -0.8615571904 1.4778465901
| 13> C 0.0343602081 -1.3646994948 -0.5014093598
| 14> C -1.4456855153 -1.2981622114 -0.1373035241
| 15> C -1.9341284658 0.1461297478 -0.1727275829
| 16> C -1.0937113328 1.0233419664 0.7522128086
| 17> C 0.400711497 0.9627693643 0.4075056854
| 18> H 0.9425611083 1.4928533674 1.1997556387
| 19> C 0.6971342284 1.6670538591 -0.9263869923
| 20> H 2.6228660643 -0.4303523364 -0.8098246405
| 21> H 2.9209016783 -0.0163180383 0.8784585808
| 22> H 2.6555941022 -1.697148804 0.4094074177
| 23> H 0.173808047 -1.0127327461 -1.5250235234
| 24> H 0.3811171806 -2.3994726058 -0.4547471165
| 25> H -2.0296830632 -1.9058046187 -0.8316930181
| 26> H -1.5891614924 -1.7056136253 0.8666258493
| 27> H -1.8729148598 0.5178656659 -1.1971224987
| 28> H -2.9813612727 0.1933951852 0.1334558999
| 29> H -1.4389646084 2.0580484549 0.6971775263
| 30> H -1.2322122584 0.6824303732 1.7814860662
| 31> H 1.258115455 2.5830395119 -0.759487458
| 32> H -0.2214416536 1.9329941382 -1.4419519545
| 33> H 1.2803151725 1.0401024122 -1.5933863289
| 34> *
| 35>
| 36>                          ****END OF INPUT****

CARTESIAN COORDINATES (ANGSTROEM)
---------------------------------
  C      2.356381   -0.669179    0.216497
  C      0.857305   -0.506840    0.459710
  H      0.651453   -0.861557    1.477847
  C      0.034360   -1.364699   -0.501409
  C     -1.445686   -1.298162   -0.137304
  C     -1.934128    0.146130   -0.172728
  C     -1.093711    1.023342    0.752213
  C      0.400711    0.962769    0.407506
  H      0.942561    1.492853    1.199756
  C      0.697134    1.667054   -0.926387
  H      2.622866   -0.430352   -0.809825
  H      2.920902   -0.016318    0.878459
  H      2.655594   -1.697149    0.409407
  H      0.173808   -1.012733   -1.525024
  H      0.381117   -2.399473   -0.454747
  H     -2.029683   -1.905805   -0.831693
  H     -1.589161   -1.705614    0.866626
  H     -1.872915    0.517866   -1.197122
  H     -2.981361    0.193395    0.133456
  H     -1.438965    2.058048    0.697178
  H     -1.232212    0.682430    1.781486
  H      1.258115    2.583040   -0.759487
  H     -0.221442    1.932994   -1.441952
  H      1.280315    1.040102   -1.593386

 Total Charge           Charge          ....    0
 Multiplicity           Mult            ....    1
 Number of Electrons    NEL             ....   64
 Basis Dimension        Dim             ....  232

ORBITAL ENERGIES
----------------

  NO   OCC          E(Eh)            E(eV)
   0   2.0000     -10.018764      -272.6244
   1   2.0000     -10.018047      -272.6049
   2   2.0000     -10.011126      -272.4166
   3   2.0000     -10.010990      -272.4129
   4   2.0000     -10.010293      -272.3939
   5   2.0000     -10.009344      -272.3681
   6   2.0000     -10.004230      -272.2289
   7   2.0000     -10.003312      -272.2040
   8   2.0000      -0.797149       -21.6915
   9   2.0000      -0.721606       -19.6359
  10   2.0000      -0.711592       -19.3634
  11   2.0000      -0.650340       -17.6966
  12   2.0000      -0.617675       -16.8078
  13   2.0000      -0.556074       -15.1315
  14   2.0000      -0.539028       -14.6677
  15   2.0000      -0.487090       -13.2544
  16   2.0000      -0.438311       -11.9271
  17   2.0000      -0.420388       -11.4393
  18   2.0000      -0.398773       -10.8512
  19   2.0000      -0.394148       -10.7253
  20   2.0000      -0.371156       -10.0997
  21   2.0000      -0.358272        -9.7491
  22   2.0000      -0.346525        -9.4294
  23   2.0000      -0.337953        -9.1962
  24   2.0000      -0.326987        -8.8978
  25   2.0000      -0.312626        -8.5070
  26   2.0000      -0.300918        -8.1884
  27   2.0000      -0.296280        -8.0622
  28   2.0000      -0.286810        -7.8045
  29   2.0000      -0.268769        -7.3136
  30   2.0000      -0.251275        -6.8375
  31   2.0000      -0.246637        -6.7113
  32   0.0000       0.087925         2.3926
  33   0.0000       0.111985         3.0473
  34   0.0000       0.116732         3.1764
  35   0.0000       0.124074         3.3762
  36   0.0000       0.125561         3.4167

MULLIKEN ATOMIC CHARGES
-----------------------
   0 C :   -0.536505
   1 C :   -0.153497
   2 H :    0.162730
   3 C :   -0.307395
   4 C :   -0.337364
   5 C :   -0.269295
   6 C :   -0.421865
   7 C :    0.098554
   8 H :    0.160419
   9 C :   -0.623579
  10 H :    0.159420
  11 H :    0.158950
  12 H :    0.159713
  13 H :    0.162759
  14 H :    0.151758
  15 H :    0.153009
  16 H :    0.155210
  17 H :    0.151388
  18 H :    0.152927
  19 H :    0.159444
  20 H :    0.159227
  21 H :    0.164700
  22 H :    0.169087
  23 H :    0.170207
Sum of atomic charges:   -0.0000000

LOEWDIN ATOMIC CHARGES
----------------------
   0 C :   -0.422520
   1 C :   -0.230740
   2 H :    0.162484
   3 C :   -0.298584
   4 C :   -0.304671
   5 C :   -0.308473
   6 C :   -0.302017
   7 C :   -0.228610
   8 H :    0.160487
   9 C :   -0.426723
  10 H :    0.154665
  11 H :    0.156208
  12 H :    0.155698
  13 H :    0.160641
  14 H :    0.158436
  15 H :    0.154467
  16 H :    0.156059
  17 H :    0.156219
  18 H :    0.156185
  19 H :    0.157693
  20 H :    0.158957
  21 H :    0.157173
  22 H :    0.158486
  23 H :    0.158478

  Mayer bond orders larger than 0.100000
B(  0-C ,  1-C ) :   0.8820 B(  0-C , 10-H ) :   0.9786 B(  0-C , 11-H ) :   0.9786
B(  0-C , 12-H ) :   0.9780 B(  1-C ,  2-H ) :   0.9874 B(  1-C ,  3-C ) :   0.9104
B(  1-C ,  7-C ) :   0.9208 B(  3-C ,  4-C ) :   0.8970 B(  3-C , 13-H ) :   0.9857
B(  3-C , 14-H ) :   0.9428 B(  4-C ,  5-C ) :   0.9066 B(  4-C , 15-H ) :   0.9489
B(  4-C , 16-H ) :   1.0084 B(  5-C ,  6-C ) :   0.9110 B(  5-C , 17-H ) :   0.9799
B(  5-C , 18-H ) :   0.9432 B(  6-C ,  7-C ) :   0.9028 B(  6-C , 19-H ) :   0.9553
B(  6-C , 20-H ) :   0.9949 B(  7-C ,  8-H ) :   0.9499 B(  7-C ,  9-C ) :   0.7849
B(  9-C , 21-H ) :   0.9688 B(  9-C , 22-H ) :   0.9810 B(  9-C , 23-H ) :   0.9828

Dispersion correction           -0.007711076
FINAL SINGLE POINT ENERGY      -314.385656937932

DIPOLE MOMENT
-------------

Method             : SCF
Type of density    : Electron Density
Multiplicity       :   1
Irrep              :   0
Energy             :  -314.3887727957009020 Eh
Relativity type    :
Basis              : AO
                                X                 Y                 Z
Electronic contribution:     -1.449305477      -0.451251475       1.150364567
Nuclear contribution   :      1.426939299       0.442558848      -1.096734143
                        -----------------------------------------
Total Dipole Moment    :     -0.022366178      -0.008692627       0.053630424
                        -----------------------------------------
Magnitude (a.u.)       :      0.058753979
Magnitude (Debye)      :      0.149340747

Rotational constants in cm-1:             0.088720             0.063995             0.046500
Rotational constants in MHz :          2659.757203          1918.509989          1394.046092

                             ****ORCA TERMINATED NORMALLY****
TOTAL RUN TIME: 0 days 0 hours 0 minutes 31 seconds 212 msec
