                         Program Version 6.0.0  -   RELEASE  -
|  1> ! wb97x-v def2-tzvp def2/J RIJCOSX DEFGRID2 scfconv7 GCP(DFT/TZ) printgap
|  2> %output
|  3>     printlevel normal
|  4> end
|  5> * xyz 0 1
|  6> C -0.17477345487047433 -2.339489605852941 0.22091247960244506
|  7> C 0.5032041685621766 -1.006581242504455 0.11914056394883364
|  8> C 1.899982812641665 -0.9469403858823268 0.18176137787027977
|  9> C 2.596421263484234 0.25087567208303374 0.07620838510039102
| 10> C 1.9128443682317224 1.4490199429343276 -0.12148695454125123
| 11> C 0.5320977804463864 1.4334365615810611 -0.2170471855090058
| 12> C -0.1479075486107246 0.22244827818945823 -0.08383531263639478
| 13> N -1.606539551742722 0.2907206613177928 -0.1711705277075869
| 14> O -2.2734100737040714 -0.5528789834771938 0.4257894719131438
| 15> O -2.1063089325779907 1.2030331811085468 -0.8326505655805331
| 16> H 0.5697413377386082 -3.130976295166301 0.11465680460264943
| 17> H -0.6703734188127045 -2.4595103865523407 1.1885443136575153
| 18> H -0.9393425987241472 -2.4694732840375564 -0.549779575006561
| 19> H 2.4472088388745794 -1.8748900146171141 0.3144400975783835
| 20> H 3.6793989963659666 0.247959141422161 0.14356355059277312
| 21> H 2.450329946154409 2.38722561878576 -0.20181903453493374
| 22> H -0.02719315698317406 2.348359505175886 -0.36841124752171744
| 23> *
| 24>
| 25>                          ****END OF INPUT****

CARTESIAN COORDINATES (ANGSTROEM)
---------------------------------
  C     -0.174773   -2.339490    0.220912
  C      0.503204   -1.006581    0.119141
  C      1.899983   -0.946940    0.181761
  C      2.596421    0.250876    0.076208
  C      1.912844    1.449020   -0.121487
  C      0.532098    1.433437   -0.217047
  C     -0.147908    0.222448   -0.083835
  N     -1.606540    0.290721   -0.171171
  O     -2.273410   -0.552879    0.425789
  O     -2.106309    1.203033   -0.832651
  H      0.569741   -3.130976    0.114657
  H     -0.670373   -2.459510    1.188544
  H     -0.939343   -2.469473   -0.549780
  H      2.447209   -1.874890    0.314440
  H      3.679399    0.247959    0.143564
  H      2.450330    2.387226   -0.201819
  H     -0.027193    2.348360   -0.368411

 Total Charge           Charge          ....    0
 Multiplicity           Mult            ....    1
 Number of Electrons    NEL             ....   72
 Basis Dimension        Dim             ....  352

ORBITAL ENERGIES
----------------

  NO   OCC          E(Eh)            E(eV)
   0   2.0000     -21.707891      -590.7017
   1   2.0000     -21.706476      -590.6632
   2   2.0000     -16.772629      -456.4064
   3   2.0000     -12.120880      -329.8259
   4   2.0000     -12.099168      -329.2351
   5   2.0000     -12.083809      -328.8172
   6   2.0000     -12.080892      -328.7378
   7   2.0000     -12.075197      -328.5828
   8   2.0000     -12.074470      -328.5630
   9   2.0000     -12.057355      -328.0973
  10   2.0000      -1.899956       -51.7004
  11   2.0000      -1.744627       -47.4737
  12   2.0000      -1.439941       -39.1828
  13   2.0000      -1.370908       -37.3043
  14   2.0000      -1.324587       -36.0439
  15   2.0000      -1.273804       -34.6620
  16   2.0000      -1.214884       -33.0587
  17   2.0000      -1.174940       -31.9717
  18   2.0000      -1.145570       -31.1725
  19   2.0000      -1.121020       -30.5045
  20   2.0000      -1.086480       -29.5646
  21   2.0000      -1.072908       -29.1953
  22   2.0000      -0.988907       -26.9095
  23   2.0000      -0.970706       -26.4143
  24   2.0000      -0.930282       -25.3143
  25   2.0000      -0.917746       -24.9731
  26   2.0000      -0.900809       -24.5123
  27   2.0000      -0.898639       -24.4532
  28   2.0000      -0.893640       -24.3172
  29   2.0000      -0.861647       -23.4466
  30   2.0000      -0.855776       -23.2869
  31   2.0000      -0.842928       -22.9372
  32   2.0000      -0.826328       -22.4855
  33   2.0000      -0.794704       -21.6250
  34   2.0000      -0.682460       -18.5707
  35   2.0000      -0.663019       -18.0417
  36   0.0000      -0.482694       -13.1348
  37   0.0000      -0.269809        -7.3419
  38   0.0000      -0.263046        -7.1578
  39   0.0000      -0.231165        -6.2903
  40   0.0000      -0.123766        -3.3678

MULLIKEN ATOMIC CHARGES
-----------------------
   0 C :   -0.330492
   1 C :    0.021013
   2 C :   -0.149609
   3 C :   -0.114940
   4 C :   -0.094766
   5 C :   -0.179476
   6 C :    0.078886
   7 N :    0.445951
   8 O :   -0.304681
   9 O :   -0.312826
  10 H :    0.113355
  11 H :    0.144631
  12 H :    0.139743
  13 H :    0.124210
  14 H :    0.130018
  15 H :    0.131061
  16 H :    0.157920
Sum of atomic charges:    0.0000000

LOEWDIN ATOMIC CHARGES
----------------------
   0 C :   -0.246963
   1 C :   -0.119353
   2 C :   -0.105136
   3 C :   -0.114746
   4 C :   -0.132543
   5 C :   -0.088589
   6 C :   -0.130889
   7 N :   -0.001739
   8 O :   -0.020790
   9 O :   -0.034439
  10 H :    0.125534
  11 H :    0.136351
  12 H :    0.132666
  13 H :    0.148842
  14 H :    0.147066
  15 H :    0.146785
  16 H :    0.157945

  Mayer bond orders larger than 0.100000
B(  0-C ,  1-C ) :   0.9691 B(  0-C , 10-H ) :   0.9768 B(  0-C , 11-H ) :   0.9589
B(  0-C , 12-H ) :   0.9737 B(  1-C ,  2-C ) :   1.4289 B(  1-C ,  6-C ) :   1.3485
B(  2-C ,  3-C ) :   1.4387 B(  2-C , 13-H ) :   0.9654 B(  3-C ,  4-C ) :   1.4010
B(  3-C , 14-H ) :   0.9715 B(  4-C ,  5-C ) :   1.4379 B(  4-C , 15-H ) :   0.9720
B(  5-C ,  6-C ) :   1.4315 B(  5-C , 16-H ) :   0.9446 B(  6-C ,  7-N ) :   0.9290
B(  7-N ,  8-O ) :   1.6016 B(  7-N ,  9-O ) :   1.6191 B(  8-O ,  9-O ) :   0.2032

FINAL SINGLE POINT ENERGY      -476.094622701418

DIPOLE MOMENT
-------------

Method             : SCF
Type of density    : Electron Density
Multiplicity       :   1
Irrep              :   0
Energy             :  -476.1042102883175744 Eh
Relativity type    :
Basis              : AO
                                X                 Y                 Z
Electronic contribution:     -5.237986849       4.278545578      -0.746705189
Nuclear contribution   :      6.946030868      -4.548572655       0.890718827
                        -----------------------------------------
Total Dipole Moment    :      1.708044019      -0.270027078       0.144013639
                        -----------------------------------------
Magnitude (a.u.)       :      1.735243188
Magnitude (Debye)      :      4.410637665

Rotational constants in cm-1:             0.075489             0.041868             0.027728
Rotational constants in MHz :          2263.107350          1255.165446           831.257750

                             ****ORCA TERMINATED NORMALLY****
TOTAL RUN TIME: 0 days 0 hours 4 minutes 3 seconds 532 msec
