                         Program Version 6.0.0  -   RELEASE  -
|  1> ! wb97x-v def2-tzvp def2/J RIJCOSX DEFGRID2 scfconv7 GCP(DFT/TZ) printgap
|  2> %output
|  3>     printlevel normal
|  4> end
|  5> %cpcm
|  6>     smd true
|  7>     smdsolvent "water"
|  8> end
|  9> * xyz 0 1
| 10> C -0.17477345487047433 -2.339489605852941 0.22091247960244506
| 11> C 0.5032041685621766 -1.006581242504455 0.11914056394883364
| 12> C 1.899982812641665 -0.9469403858823268 0.18176137787027977
| 13> C 2.596421263484234 0.25087567208303374 0.07620838510039102
| 14> C 1.9128443682317224 1.4490199429343276 -0.12148695454125123
| 15> C 0.5320977804463864 1.4334365615810611 -0.2170471855090058
| 16> C -0.1479075486107246 0.22244827818945823 -0.08383531263639478
| 17> N -1.606539551742722 0.2907206613177928 -0.1711705277075869
| 18> O -2.2734100737040714 -0.5528789834771938 0.4257894719131438
| 19> O -2.1063089325779907 1.2030331811085468 -0.8326505655805331
| 20> H 0.5697413377386082 -3.130976295166301 0.11465680460264943
| 21> H -0.6703734188127045 -2.4595103865523407 1.1885443136575153
| 22> H -0.9393425987241472 -2.4694732840375564 -0.549779575006561
| 23> H 2.4472088388745794 -1.8748900146171141 0.3144400975783835
| 24> H 3.6793989963659666 0.247959141422161 0.14356355059277312
| 25> H 2.450329946154409 2.38722561878576 -0.20181903453493374
| 26> H -0.02719315698317406 2.348359505175886 -0.36841124752171744
| 27> *
| 28>
| 29>                          ****END OF INPUT****

CARTESIAN COORDINATES (ANGSTROEM)
---------------------------------
  C     -0.174773   -2.339490    0.220912
  C      0.503204   -1.006581    0.119141
  C      1.899983   -0.946940    0.181761
  C      2.596421    0.250876    0.076208
  C      1.912844    1.449020   -0.121487
  C      0.532098    1.433437   -0.217047
  C     -0.147908    0.222448   -0.083835
  N     -1.606540    0.290721   -0.171171
  O     -2.273410   -0.552879    0.425789
  O     -2.106309    1.203033   -0.832651
  H      0.569741   -3.130976    0.114657
  H     -0.670373   -2.459510    1.188544
  H     -0.939343   -2.469473   -0.549780
  H      2.447209   -1.874890    0.314440
  H      3.679399    0.247959    0.143564
  H      2.450330    2.387226   -0.201819
  H     -0.027193    2.348360   -0.368411

 Total Charge           Charge          ....    0
 Multiplicity           Mult            ....    1
 Number of Electrons    NEL             ....   72
 Basis Dimension        Dim             ....  352

ORBITAL ENERGIES
----------------

  NO   OCC          E(Eh)            E(eV)
   0   2.0000     -21.721639      -591.0759
   1   2.0000     -21.720044      -591.0325
   2   2.0000     -16.784036      -456.7168
   3   2.0000     -12.113551      -329.6265
   4   2.0000     -12.088847      -328.9542
   5   2.0000     -12.072884      -328.5199
   6   2.0000     -12.066050      -328.3339
   7   2.0000     -12.060126      -328.1727
   8   2.0000     -12.059067      -328.1439
   9   2.0000     -12.041631      -327.6694
  10   2.0000      -1.912966       -52.0545
  11   2.0000      -1.758489       -47.8509
  12   2.0000      -1.435639       -39.0657
  13   2.0000      -1.366645       -37.1883
  14   2.0000      -1.312102       -35.7041
  15   2.0000      -1.269561       -34.5465
  16   2.0000      -1.206516       -32.8310
  17   2.0000      -1.176932       -32.0259
  18   2.0000      -1.158311       -31.5193
  19   2.0000      -1.114423       -30.3250
  20   2.0000      -1.083754       -29.4904
  21   2.0000      -1.075686       -29.2709
  22   2.0000      -0.977829       -26.6081
  23   2.0000      -0.957087       -26.0437
  24   2.0000      -0.932637       -25.3784
  25   2.0000      -0.928024       -25.2528
  26   2.0000      -0.911373       -24.7997
  27   2.0000      -0.897226       -24.4148
  28   2.0000      -0.884714       -24.0743
  29   2.0000      -0.846151       -23.0249
  30   2.0000      -0.842208       -22.9176
  31   2.0000      -0.827466       -22.5165
  32   2.0000      -0.811197       -22.0738
  33   2.0000      -0.783873       -21.3303
  34   2.0000      -0.673389       -18.3238
  35   2.0000      -0.650683       -17.7060
  36   0.0000      -0.491592       -13.3769
  37   0.0000      -0.259560        -7.0630
  38   0.0000      -0.250558        -6.8180
  39   0.0000      -0.236962        -6.4481
  40   0.0000      -0.128059        -3.4847

MULLIKEN ATOMIC CHARGES
-----------------------
   0 C :   -0.384677
   1 C :    0.033115
   2 C :   -0.185506
   3 C :   -0.135351
   4 C :   -0.142229
   5 C :   -0.203574
   6 C :    0.103217
   7 N :    0.512492
   8 O :   -0.362455
   9 O :   -0.380260
  10 H :    0.146076
  11 H :    0.151955
  12 H :    0.156466
  13 H :    0.167854
  14 H :    0.171017
  15 H :    0.170990
  16 H :    0.180869
Sum of atomic charges:    0.0000000

LOEWDIN ATOMIC CHARGES
----------------------
   0 C :   -0.248737
   1 C :   -0.118143
   2 C :   -0.102159
   3 C :   -0.108334
   4 C :   -0.132223
   5 C :   -0.090504
   6 C :   -0.136031
   7 N :    0.013160
   8 O :   -0.050297
   9 O :   -0.072721
  10 H :    0.134811
  11 H :    0.136202
  12 H :    0.135001
  13 H :    0.160564
  14 H :    0.158451
  15 H :    0.157340
  16 H :    0.163619

  Mayer bond orders larger than 0.100000
B(  0-C ,  1-C ) :   0.9519 B(  0-C , 10-H ) :   0.9722 B(  0-C , 11-H ) :   0.9581
B(  0-C , 12-H ) :   0.9756 B(  1-C ,  2-C ) :   1.4171 B(  1-C ,  6-C ) :   1.3195
B(  2-C ,  3-C ) :   1.4166 B(  2-C , 13-H ) :   0.9689 B(  3-C ,  4-C ) :   1.3786
B(  3-C , 14-H ) :   0.9738 B(  4-C ,  5-C ) :   1.4415 B(  4-C , 15-H ) :   0.9734
B(  5-C ,  6-C ) :   1.3746 B(  5-C , 16-H ) :   0.9555 B(  6-C ,  7-N ) :   0.9381
B(  7-N ,  8-O ) :   1.5778 B(  7-N ,  9-O ) :   1.5790 B(  8-O ,  9-O ) :   0.1949

FINAL SINGLE POINT ENERGY      -476.099215830396

DIPOLE MOMENT
-------------

Method             : SCF
Type of density    : Electron Density
Multiplicity       :   1
Irrep              :   0
Energy             :  -476.1088034172955759 Eh
Relativity type    :
Basis              : AO
                                X                 Y                 Z
Electronic contribution:     -4.586683560       4.175204412      -0.702587812
Nuclear contribution   :      6.946030868      -4.548572655       0.890718827
                        -----------------------------------------
Total Dipole Moment    :      2.359347308      -0.373368244       0.188131015
                        -----------------------------------------
Magnitude (a.u.)       :      2.396104514
Magnitude (Debye)      :      6.090413663

Rotational constants in cm-1:             0.075489             0.041868             0.027728
Rotational constants in MHz :          2263.107350          1255.165446           831.257750

                             ****ORCA TERMINATED NORMALLY****
TOTAL RUN TIME: 0 days 0 hours 3 minutes 34 seconds 721 msec
