                         Program Version 6.0.0  -   RELEASE  -
|  1> ! r2scan-3c def2/J RI DEFGRID2 scfconv6 printgap
|  2> %output
|  3>     printlevel normal
|  4> end
|  5> * xyz 0 1
|  6> C 3.6336337276 0.7059283225 -0.0006594319
|  7> C 3.6336157541 -0.7058708417 -0.0001781598
|  8> C 2.4602130754 -1.3954868469 0.0004013231
|  9> C 1.2151605644 -0.715325879 0.0004120331
| 10> C 1.93858e-05 -1.3948325871 0.0002855935
| 11> C -1.2151887056 -0.7153292224 8.27172e-05
| 12> C -2.4602145445 -1.3955019489 -0.0003420112
| 13> C -3.633663404 -0.7058353817 -0.0005243628
| 14> C -3.6336287797 0.7059311599 -0.0001390894
| 15> C -2.4601178463 1.3954806256 0.0003590552
| 16> C -1.2151818901 0.715260463 0.0002898232
| 17> C 1.8007e-06 1.3948052613 0.0003323258
| 18> C 1.2151765755 0.7152738767 0.0002163009
| 19> C 2.4601864871 1.3954832513 -0.0002837949
| 20> H 4.5772212944 1.2309170053 -0.0012695735
| 21> H 4.5772693732 -1.2309161853 -0.000689624
| 22> H 2.4538160958 -2.4759552659 0.0008410801
| 23> H -5.50514e-05 -2.4760237096 0.0002681322
| 24> H -2.4539847063 -2.4759520541 -0.0006682824
| 25> H -4.5772851164 -1.230848676 -0.0011975812
| 26> H -4.5771245358 1.2311391903 -0.0005799279
| 27> H -2.4537016545 2.4759313846 0.0003394626
| 28> H -6.74745e-05 2.4759985165 0.000417908
| 29> H 2.4537663846 2.4759451188 -0.0004684787
| 30> *
| 31>
| 32>                          ****END OF INPUT****

CARTESIAN COORDINATES (ANGSTROEM)
---------------------------------
  C      3.633634    0.705928   -0.000659
  C      3.633616   -0.705871   -0.000178
  C      2.460213   -1.395487    0.000401
  C      1.215161   -0.715326    0.000412
  C      0.000019   -1.394833    0.000286
  C     -1.215189   -0.715329    0.000083
  C     -2.460215   -1.395502   -0.000342
  C     -3.633663   -0.705835   -0.000524
  C     -3.633629    0.705931   -0.000139
  C     -2.460118    1.395481    0.000359
  C     -1.215182    0.715260    0.000290
  C      0.000002    1.394805    0.000332
  C      1.215177    0.715274    0.000216
  C      2.460186    1.395483   -0.000284
  H      4.577221    1.230917   -0.001270
  H      4.577269   -1.230916   -0.000690
  H      2.453816   -2.475955    0.000841
  H     -0.000055   -2.476024    0.000268
  H     -2.453985   -2.475952   -0.000668
  H     -4.577285   -1.230849   -0.001198
  H     -4.577125    1.231139   -0.000580
  H     -2.453702    2.475931    0.000339
  H     -0.000067    2.475999    0.000418
  H      2.453766    2.475945   -0.000468

 Total Charge           Charge          ....    0
 Multiplicity           Mult            ....    1
 Number of Electrons    NEL             ....   94
 Basis Dimension        Dim             ....  316

ORBITAL ENERGIES
----------------

  NO   OCC          E(Eh)            E(eV)
   0   2.0000     -10.049200      -273.4526
   1   2.0000     -10.049198      -273.4526
   2   2.0000     -10.048902      -273.4445
   3   2.0000     -10.048888      -273.4441
   4   2.0000     -10.039785      -273.1965
   5   2.0000     -10.039773      -273.1961
   6   2.0000     -10.039081      -273.1773
   7   2.0000     -10.039078      -273.1772
   8   2.0000     -10.039066      -273.1769
   9   2.0000     -10.039061      -273.1767
  10   2.0000     -10.038135      -273.1515
  11   2.0000     -10.038132      -273.1514
  12   2.0000     -10.037795      -273.1423
  13   2.0000     -10.037792      -273.1422
  14   2.0000      -0.857053       -23.3216
  15   2.0000      -0.825298       -22.4575
  16   2.0000      -0.775666       -21.1069
  17   2.0000      -0.757632       -20.6162
  18   2.0000      -0.724859       -19.7244
  19   2.0000      -0.713339       -19.4109
  20   2.0000      -0.675616       -18.3844
  21   2.0000      -0.619636       -16.8612
  22   2.0000      -0.589000       -16.0275
  23   2.0000      -0.575075       -15.6486
  24   2.0000      -0.564850       -15.3703
  25   2.0000      -0.511876       -13.9288
  26   2.0000      -0.496775       -13.5179
  27   2.0000      -0.478487       -13.0203
  28   2.0000      -0.436567       -11.8796
  29   2.0000      -0.435430       -11.8486
  30   2.0000      -0.423335       -11.5195
  31   2.0000      -0.420163       -11.4332
  32   2.0000      -0.396341       -10.7850
  33   2.0000      -0.386345       -10.5130
  34   2.0000      -0.382631       -10.4119
  35   2.0000      -0.379600       -10.3294
  36   2.0000      -0.361557        -9.8385
  37   2.0000      -0.349364        -9.5067
  38   2.0000      -0.345441        -9.3999
  39   2.0000      -0.318623        -8.6702
  40   2.0000      -0.306809        -8.3487
  41   2.0000      -0.299041        -8.1373
  42   2.0000      -0.289504        -7.8778
  43   2.0000      -0.283838        -7.7236
  44   2.0000      -0.244124        -6.6430
  45   2.0000      -0.232458        -6.3255
  46   2.0000      -0.185411        -5.0453
  47   0.0000      -0.091301        -2.4844
  48   0.0000      -0.040489        -1.1018
  49   0.0000      -0.027137        -0.7384
  50   0.0000       0.000993         0.0270
  51   0.0000       0.033128         0.9014

MULLIKEN ATOMIC CHARGES
-----------------------
   0 C :   -0.140750
   1 C :   -0.140708
   2 C :   -0.276882
   3 C :    0.203652
   4 C :   -0.288762
   5 C :    0.203626
   6 C :   -0.276852
   7 C :   -0.140740
   8 C :   -0.140760
   9 C :   -0.276769
  10 C :    0.203580
  11 C :   -0.288721
  12 C :    0.203588
  13 C :   -0.276834
  14 H :    0.145836
  15 H :    0.145842
  16 H :    0.142842
  17 H :    0.139309
  18 H :    0.142845
  19 H :    0.145839
  20 H :    0.145838
  21 H :    0.142834
  22 H :    0.139307
  23 H :    0.142840
Sum of atomic charges:    0.0000000

LOEWDIN ATOMIC CHARGES
----------------------
   0 C :   -0.165067
   1 C :   -0.165068
   2 C :   -0.142260
   3 C :   -0.056602
   4 C :   -0.124128
   5 C :   -0.056596
   6 C :   -0.142261
   7 C :   -0.165061
   8 C :   -0.165069
   9 C :   -0.142255
  10 C :   -0.056608
  11 C :   -0.124121
  12 C :   -0.056600
  13 C :   -0.142251
  14 H :    0.168076
  15 H :    0.168086
  16 H :    0.170952
  17 H :    0.173913
  18 H :    0.170949
  19 H :    0.168080
  20 H :    0.168079
  21 H :    0.170947
  22 H :    0.173914
  23 H :    0.170950

  Mayer bond orders larger than 0.100000
B(  0-C ,  1-C ) :   1.2171 B(  0-C , 13-C ) :   1.5473 B(  0-C , 14-H ) :   0.9475
B(  1-C ,  2-C ) :   1.5474 B(  1-C , 15-H ) :   0.9474 B(  2-C ,  3-C ) :   1.1696
B(  2-C , 16-H ) :   0.9508 B(  3-C ,  4-C ) :   1.2552 B(  3-C , 12-C ) :   1.4341
B(  4-C ,  5-C ) :   1.2552 B(  4-C , 17-H ) :   0.9563 B(  5-C ,  6-C ) :   1.1697
B(  5-C , 10-C ) :   1.4342 B(  6-C ,  7-C ) :   1.5472 B(  6-C , 18-H ) :   0.9508
B(  7-C ,  8-C ) :   1.2172 B(  7-C , 19-H ) :   0.9475 B(  8-C ,  9-C ) :   1.5472
B(  8-C , 20-H ) :   0.9475 B(  9-C , 10-C ) :   1.1697 B(  9-C , 21-H ) :   0.9508
B( 10-C , 11-C ) :   1.2552 B( 11-C , 12-C ) :   1.2552 B( 11-C , 22-H ) :   0.9563
B( 12-C , 13-C ) :   1.1696 B( 13-C , 23-H ) :   0.9508

Dispersion correction           -0.010729551
FINAL SINGLE POINT ENERGY      -539.383046586683

DIPOLE MOMENT
-------------

Method             : SCF
Type of density    : Electron Density
Multiplicity       :   1
Irrep              :   0
Energy             :  -539.3769505163302256 Eh
Relativity type    :
Basis              : AO
                                X                 Y                 Z
Electronic contribution:      0.000123504      -0.000155063       0.002236814
Nuclear contribution   :     -0.000136402       0.000220775      -0.002820973
                        -----------------------------------------
Total Dipole Moment    :     -0.000012897       0.000065712      -0.000584159
                        -----------------------------------------
Magnitude (a.u.)       :      0.000587985
Magnitude (Debye)      :      0.001494539

Rotational constants in cm-1:             0.072661             0.015258             0.012610
Rotational constants in MHz :          2178.331234           457.430532           378.044506

                             ****ORCA TERMINATED NORMALLY****
TOTAL RUN TIME: 0 days 0 hours 0 minutes 29 seconds 200 msec
