                         Program Version 6.0.0  -   RELEASE  -
|  1> ! r2scan-3c def2/J RI DEFGRID2 scfconv6 printgap
|  2> %output
|  3>     printlevel normal
|  4> end
|  5> %cpcm
|  6>     smd true
|  7>     smdsolvent "water"
|  8> end
|  9> * xyz 0 1
| 10> C 3.6336337276 0.7059283225 -0.0006594319
| 11> C 3.6336157541 -0.7058708417 -0.0001781598
| 12> C 2.4602130754 -1.3954868469 0.0004013231
| 13> C 1.2151605644 -0.715325879 0.0004120331
| 14> C 1.93858e-05 -1.3948325871 0.0002855935
| 15> C -1.2151887056 -0.7153292224 8.27172e-05
| 16> C -2.4602145445 -1.3955019489 -0.0003420112
| 17> C -3.633663404 -0.7058353817 -0.0005243628
| 18> C -3.6336287797 0.7059311599 -0.0001390894
| 19> C -2.4601178463 1.3954806256 0.0003590552
| 20> C -1.2151818901 0.715260463 0.0002898232
| 21> C 1.8007e-06 1.3948052613 0.0003323258
| 22> C 1.2151765755 0.7152738767 0.0002163009
| 23> C 2.4601864871 1.3954832513 -0.0002837949
| 24> H 4.5772212944 1.2309170053 -0.0012695735
| 25> H 4.5772693732 -1.2309161853 -0.000689624
| 26> H 2.4538160958 -2.4759552659 0.0008410801
| 27> H -5.50514e-05 -2.4760237096 0.0002681322
| 28> H -2.4539847063 -2.4759520541 -0.0006682824
| 29> H -4.5772851164 -1.230848676 -0.0011975812
| 30> H -4.5771245358 1.2311391903 -0.0005799279
| 31> H -2.4537016545 2.4759313846 0.0003394626
| 32> H -6.74745e-05 2.4759985165 0.000417908
| 33> H 2.4537663846 2.4759451188 -0.0004684787
| 34> *
| 35>
| 36>                          ****END OF INPUT****

CARTESIAN COORDINATES (ANGSTROEM)
---------------------------------
  C      3.633634    0.705928   -0.000659
  C      3.633616   -0.705871   -0.000178
  C      2.460213   -1.395487    0.000401
  C      1.215161   -0.715326    0.000412
  C      0.000019   -1.394833    0.000286
  C     -1.215189   -0.715329    0.000083
  C     -2.460215   -1.395502   -0.000342
  C     -3.633663   -0.705835   -0.000524
  C     -3.633629    0.705931   -0.000139
  C     -2.460118    1.395481    0.000359
  C     -1.215182    0.715260    0.000290
  C      0.000002    1.394805    0.000332
  C      1.215177    0.715274    0.000216
  C      2.460186    1.395483   -0.000284
  H      4.577221    1.230917   -0.001270
  H      4.577269   -1.230916   -0.000690
  H      2.453816   -2.475955    0.000841
  H     -0.000055   -2.476024    0.000268
  H     -2.453985   -2.475952   -0.000668
  H     -4.577285   -1.230849   -0.001198
  H     -4.577125    1.231139   -0.000580
  H     -2.453702    2.475931    0.000339
  H     -0.000067    2.475999    0.000418
  H      2.453766    2.475945   -0.000468

 Total Charge           Charge          ....    0
 Multiplicity           Mult            ....    1
 Number of Electrons    NEL             ....   94
 Basis Dimension        Dim             ....  316

ORBITAL ENERGIES
----------------

  NO   OCC          E(Eh)            E(eV)
   0   2.0000     -10.048244      -273.4266
   1   2.0000     -10.048241      -273.4265
   2   2.0000     -10.047944      -273.4185
   3   2.0000     -10.047932      -273.4181
   4   2.0000     -10.037323      -273.1295
   5   2.0000     -10.037311      -273.1291
   6   2.0000     -10.036204      -273.0990
   7   2.0000     -10.036201      -273.0989
   8   2.0000     -10.036186      -273.0985
   9   2.0000     -10.036182      -273.0984
  10   2.0000     -10.035307      -273.0746
  11   2.0000     -10.035304      -273.0745
  12   2.0000     -10.034970      -273.0654
  13   2.0000     -10.034967      -273.0653
  14   2.0000      -0.857066       -23.3219
  15   2.0000      -0.824857       -22.4455
  16   2.0000      -0.774711       -21.0810
  17   2.0000      -0.756247       -20.5785
  18   2.0000      -0.723149       -19.6779
  19   2.0000      -0.712304       -19.3828
  20   2.0000      -0.673620       -18.3301
  21   2.0000      -0.617487       -16.8027
  22   2.0000      -0.586923       -15.9710
  23   2.0000      -0.571490       -15.5510
  24   2.0000      -0.561584       -15.2815
  25   2.0000      -0.508329       -13.8323
  26   2.0000      -0.493317       -13.4238
  27   2.0000      -0.474372       -12.9083
  28   2.0000      -0.432963       -11.7815
  29   2.0000      -0.430208       -11.7066
  30   2.0000      -0.418072       -11.3763
  31   2.0000      -0.417001       -11.3472
  32   2.0000      -0.391443       -10.6517
  33   2.0000      -0.385328       -10.4853
  34   2.0000      -0.381040       -10.3686
  35   2.0000      -0.377484       -10.2719
  36   2.0000      -0.356897        -9.7117
  37   2.0000      -0.347695        -9.4613
  38   2.0000      -0.344512        -9.3746
  39   2.0000      -0.313563        -8.5325
  40   2.0000      -0.303707        -8.2643
  41   2.0000      -0.293978        -7.9995
  42   2.0000      -0.291186        -7.9236
  43   2.0000      -0.285490        -7.7686
  44   2.0000      -0.245527        -6.6811
  45   2.0000      -0.234467        -6.3802
  46   2.0000      -0.186440        -5.0733
  47   0.0000      -0.092019        -2.5040
  48   0.0000      -0.041954        -1.1416
  49   0.0000      -0.027618        -0.7515
  50   0.0000       0.000429         0.0117
  51   0.0000       0.033069         0.8999

MULLIKEN ATOMIC CHARGES
-----------------------
   0 C :   -0.173008
   1 C :   -0.172994
   2 C :   -0.295860
   3 C :    0.164477
   4 C :   -0.281541
   5 C :    0.164459
   6 C :   -0.295860
   7 C :   -0.173008
   8 C :   -0.173035
   9 C :   -0.295766
  10 C :    0.164415
  11 C :   -0.281488
  12 C :    0.164424
  13 C :   -0.295840
  14 H :    0.178771
  15 H :    0.178778
  16 H :    0.177877
  17 H :    0.177009
  18 H :    0.177882
  19 H :    0.178775
  20 H :    0.178774
  21 H :    0.177872
  22 H :    0.177011
  23 H :    0.177875
Sum of atomic charges:    0.0000000

LOEWDIN ATOMIC CHARGES
----------------------
   0 C :   -0.172810
   1 C :   -0.172816
   2 C :   -0.149893
   3 C :   -0.070133
   4 C :   -0.127058
   5 C :   -0.070128
   6 C :   -0.149892
   7 C :   -0.172809
   8 C :   -0.172815
   9 C :   -0.149885
  10 C :   -0.070140
  11 C :   -0.127049
  12 C :   -0.070131
  13 C :   -0.149883
  14 H :    0.179223
  15 H :    0.179235
  16 H :    0.183226
  17 H :    0.187816
  18 H :    0.183223
  19 H :    0.179228
  20 H :    0.179227
  21 H :    0.183222
  22 H :    0.187818
  23 H :    0.183224

  Mayer bond orders larger than 0.100000
B(  0-C ,  1-C ) :   1.1833 B(  0-C , 13-C ) :   1.5122 B(  0-C , 14-H ) :   0.9587
B(  1-C ,  2-C ) :   1.5123 B(  1-C , 15-H ) :   0.9587 B(  2-C ,  3-C ) :   1.1683
B(  2-C , 16-H ) :   0.9586 B(  3-C ,  4-C ) :   1.2583 B(  3-C , 12-C ) :   1.3412
B(  4-C ,  5-C ) :   1.2582 B(  4-C , 17-H ) :   0.9665 B(  5-C ,  6-C ) :   1.1683
B(  5-C , 10-C ) :   1.3412 B(  6-C ,  7-C ) :   1.5122 B(  6-C , 18-H ) :   0.9586
B(  7-C ,  8-C ) :   1.1834 B(  7-C , 19-H ) :   0.9587 B(  8-C ,  9-C ) :   1.5122
B(  8-C , 20-H ) :   0.9587 B(  9-C , 10-C ) :   1.1684 B(  9-C , 21-H ) :   0.9586
B( 10-C , 11-C ) :   1.2582 B( 11-C , 12-C ) :   1.2583 B( 11-C , 22-H ) :   0.9665
B( 12-C , 13-C ) :   1.1683 B( 13-C , 23-H ) :   0.9586

Dispersion correction           -0.010729551
FINAL SINGLE POINT ENERGY      -539.388336547817

DIPOLE MOMENT
-------------

Method             : SCF
Type of density    : Electron Density
Multiplicity       :   1
Irrep              :   0
Energy             :  -539.3822404774635970 Eh
Relativity type    :
Basis              : AO
                                X                 Y                 Z
Electronic contribution:      0.000113670      -0.000104858       0.002019870
Nuclear contribution   :     -0.000136402       0.000220775      -0.002820973
                        -----------------------------------------
Total Dipole Moment    :     -0.000022731       0.000115917      -0.000801103
                        -----------------------------------------
Magnitude (a.u.)       :      0.000809765
Magnitude (Debye)      :      0.002058259

Rotational constants in cm-1:             0.072661             0.015258             0.012610
Rotational constants in MHz :          2178.331234           457.430532           378.044506

                             ****ORCA TERMINATED NORMALLY****
TOTAL RUN TIME: 0 days 0 hours 0 minutes 34 seconds 426 msec
