                         Program Version 6.0.0  -   RELEASE  -
|  1> ! r2scan-3c def2/J RI DEFGRID2 scfconv6 printgap
|  2> %output
|  3>     printlevel normal
|  4> end
|  5> * xyz 0 1
|  6> C 1.2369183099 -0.0097476837 -4.769e-07
|  7> S -0.587776575 0.043726365 -1.337e-07
|  8> H 1.5693462378 1.0230130546 -2.7132e-05
|  9> H 1.5816955911 -0.5141430762 -0.8960376428
| 10> H 1.581718831 -0.5140791039 0.8960609774
| 11> H -0.7735678474 -1.2696671429 1.37345e-05
| 12> *
| 13>
| 14>                          ****END OF INPUT****

CARTESIAN COORDINATES (ANGSTROEM)
---------------------------------
  C      1.236918   -0.009748   -0.000000
  S     -0.587777    0.043726   -0.000000
  H      1.569346    1.023013   -0.000027
  H      1.581696   -0.514143   -0.896038
  H      1.581719   -0.514079    0.896061
  H     -0.773568   -1.269667    0.000014

 Total Charge           Charge          ....    0
 Multiplicity           Mult            ....    1
 Number of Electrons    NEL             ....   26
 Basis Dimension        Dim             ....   66

ORBITAL ENERGIES
----------------

  NO   OCC          E(Eh)            E(eV)
   0   2.0000     -88.553417     -2409.6610
   1   2.0000     -10.062700      -273.8200
   2   2.0000      -7.848447      -213.5671
   3   2.0000      -5.795719      -157.7095
   4   2.0000      -5.791929      -157.6064
   5   2.0000      -5.785348      -157.4273
   6   2.0000      -0.746917       -20.3246
   7   2.0000      -0.612910       -16.6781
   8   2.0000      -0.423070       -11.5123
   9   2.0000      -0.402836       -10.9617
  10   2.0000      -0.366879        -9.9833
  11   2.0000      -0.306932        -8.3521
  12   2.0000      -0.210285        -5.7222
  13   0.0000       0.012414         0.3378
  14   0.0000       0.052205         1.4206
  15   0.0000       0.118718         3.2305
  16   0.0000       0.155721         4.2374
  17   0.0000       0.161580         4.3968

MULLIKEN ATOMIC CHARGES
-----------------------
   0 C :   -0.355668
   1 S :   -0.255534
   2 H :    0.153979
   3 H :    0.160124
   4 H :    0.160124
   5 H :    0.136973
Sum of atomic charges:   -0.0000000

LOEWDIN ATOMIC CHARGES
----------------------
   0 C :   -0.466963
   1 S :   -0.129284
   2 H :    0.164410
   3 H :    0.154248
   4 H :    0.154247
   5 H :    0.123342

  Mayer bond orders larger than 0.100000
B(  0-C ,  1-S ) :   0.9788 B(  0-C ,  2-H ) :   0.9577 B(  0-C ,  3-H ) :   0.9572
B(  0-C ,  4-H ) :   0.9572 B(  1-S ,  5-H ) :   0.9633

Dispersion correction           -0.000781469
FINAL SINGLE POINT ENERGY      -438.656147158452

DIPOLE MOMENT
-------------

Method             : SCF
Type of density    : Electron Density
Multiplicity       :   1
Irrep              :   0
Energy             :  -438.6620810339956620 Eh
Relativity type    :
Basis              : AO
                                X                 Y                 Z
Electronic contribution:     -3.158156603       0.879337319      -0.000006794
Nuclear contribution   :      3.731175744      -1.197302443       0.000009326
                        -----------------------------------------
Total Dipole Moment    :      0.573019140      -0.317965124       0.000002532
                        -----------------------------------------
Magnitude (a.u.)       :      0.655326449
Magnitude (Debye)      :      1.665707458

Rotational constants in cm-1:             3.444678             0.430036             0.412600
Rotational constants in MHz :        103268.837558         12892.140597         12369.440711

                             ****ORCA TERMINATED NORMALLY****
TOTAL RUN TIME: 0 days 0 hours 0 minutes 8 seconds 264 msec
