                         Program Version 6.0.0  -   RELEASE  -
|  1> ! r2scan-3c def2/J RI DEFGRID2 scfconv6 printgap
|  2> %output
|  3>     printlevel normal
|  4> end
|  5> %cpcm
|  6>     smd true
|  7>     smdsolvent "water"
|  8> end
|  9> * xyz 0 1
| 10> C 1.2369183099 -0.0097476837 -4.769e-07
| 11> S -0.587776575 0.043726365 -1.337e-07
| 12> H 1.5693462378 1.0230130546 -2.7132e-05
| 13> H 1.5816955911 -0.5141430762 -0.8960376428
| 14> H 1.581718831 -0.5140791039 0.8960609774
| 15> H -0.7735678474 -1.2696671429 1.37345e-05
| 16> *
| 17>
| 18>                          ****END OF INPUT****

CARTESIAN COORDINATES (ANGSTROEM)
---------------------------------
  C      1.236918   -0.009748   -0.000000
  S     -0.587777    0.043726   -0.000000
  H      1.569346    1.023013   -0.000027
  H      1.581696   -0.514143   -0.896038
  H      1.581719   -0.514079    0.896061
  H     -0.773568   -1.269667    0.000014

 Total Charge           Charge          ....    0
 Multiplicity           Mult            ....    1
 Number of Electrons    NEL             ....   26
 Basis Dimension        Dim             ....   66

ORBITAL ENERGIES
----------------

  NO   OCC          E(Eh)            E(eV)
   0   2.0000     -88.550925     -2409.5932
   1   2.0000     -10.049019      -273.4477
   2   2.0000      -7.846067      -213.5023
   3   2.0000      -5.793072      -157.6375
   4   2.0000      -5.789392      -157.5374
   5   2.0000      -5.783441      -157.3754
   6   2.0000      -0.739134       -20.1129
   7   2.0000      -0.603698       -16.4275
   8   2.0000      -0.412385       -11.2216
   9   2.0000      -0.389386       -10.5957
  10   2.0000      -0.356073        -9.6892
  11   2.0000      -0.303082        -8.2473
  12   2.0000      -0.210303        -5.7226
  13   0.0000       0.017450         0.4748
  14   0.0000       0.059597         1.6217
  15   0.0000       0.129494         3.5237
  16   0.0000       0.169414         4.6100
  17   0.0000       0.173450         4.7198

MULLIKEN ATOMIC CHARGES
-----------------------
   0 C :   -0.373733
   1 S :   -0.331545
   2 H :    0.174590
   3 H :    0.178155
   4 H :    0.178155
   5 H :    0.174379
Sum of atomic charges:    0.0000000

LOEWDIN ATOMIC CHARGES
----------------------
   0 C :   -0.463983
   1 S :   -0.167869
   2 H :    0.171624
   3 H :    0.161969
   4 H :    0.161968
   5 H :    0.136292

  Mayer bond orders larger than 0.100000
B(  0-C ,  1-S ) :   0.9759 B(  0-C ,  2-H ) :   0.9495 B(  0-C ,  3-H ) :   0.9522
B(  0-C ,  4-H ) :   0.9522 B(  1-S ,  5-H ) :   0.9552

Dispersion correction           -0.000781469
FINAL SINGLE POINT ENERGY      -438.658022563005

DIPOLE MOMENT
-------------

Method             : SCF
Type of density    : Electron Density
Multiplicity       :   1
Irrep              :   0
Energy             :  -438.6639564385481549 Eh
Relativity type    :
Basis              : AO
                                X                 Y                 Z
Electronic contribution:     -2.970676730       0.779385966      -0.000005749
Nuclear contribution   :      3.731175744      -1.197302443       0.000009326
                        -----------------------------------------
Total Dipole Moment    :      0.760499013      -0.417916477       0.000003577
                        -----------------------------------------
Magnitude (a.u.)       :      0.867763177
Magnitude (Debye)      :      2.205678707

Rotational constants in cm-1:             3.444678             0.430036             0.412600
Rotational constants in MHz :        103268.837558         12892.140597         12369.440711

                             ****ORCA TERMINATED NORMALLY****
TOTAL RUN TIME: 0 days 0 hours 0 minutes 8 seconds 686 msec
