                         Program Version 6.0.0  -   RELEASE  -
|  1> ! r2scan-3c def2/J RI DEFGRID2 scfconv6 printgap
|  2> %output
|  3>     printlevel normal
|  4> end
|  5> * xyz 0 1
|  6> C -2.4515853468 -0.7321565651 -1.2576774116
|  7> C -1.9660430417 0.0030923545 -9.67893e-05
|  8> C -2.584093941 1.4042150907 0.0017450913
|  9> C -2.4537537174 -0.7361507265 1.2542695683
| 10> C -0.445157999 0.0340644814 0.0006880833
| 11> C 0.2678382358 -1.1635301975 0.0006526658
| 12> C 1.6466254414 -1.1896587041 0.0004234081
| 13> C 2.3673280613 6.72067e-05 0.000107422
| 14> C 1.6748646575 1.2016087091 0.0003993557
| 15> C 0.290125414 1.2116575551 0.0006900414
| 16> O 3.7290705163 -0.0665993183 -0.0005996893
| 17> H -2.0922670272 -1.7569594489 -1.2799110771
| 18> H -3.5387456001 -0.7505524272 -1.2836770502
| 19> H -2.0920796439 -0.2254296908 -2.1507343284
| 20> H -2.2896953469 1.9620372901 -0.8838912807
| 21> H -3.6686679741 1.3201671065 0.0012518067
| 22> H -2.2902052019 1.9594090696 0.8892115562
| 23> H -3.5409645847 -0.7544717146 1.2782927799
| 24> H -2.0947386053 -1.76109745 1.2738772087
| 25> H -2.0957631024 -0.232348443 2.1495781023
| 26> H -0.2571544154 -2.1063620587 0.0006960751
| 27> H 2.1867075956 -2.1237787951 0.0003126474
| 28> H 2.2151204878 2.1378750073 0.0003623378
| 29> H -0.2044343851 2.168800687 0.000903354
| 30> H 4.1100734235 0.824158808 -0.0010699948
| 31> *
| 32>
| 33>                          ****END OF INPUT****

CARTESIAN COORDINATES (ANGSTROEM)
---------------------------------
  C     -2.451585   -0.732157   -1.257677
  C     -1.966043    0.003092   -0.000097
  C     -2.584094    1.404215    0.001745
  C     -2.453754   -0.736151    1.254270
  C     -0.445158    0.034064    0.000688
  C      0.267838   -1.163530    0.000653
  C      1.646625   -1.189659    0.000423
  C      2.367328    0.000067    0.000107
  C      1.674865    1.201609    0.000399
  C      0.290125    1.211658    0.000690
  O      3.729071   -0.066599   -0.000600
  H     -2.092267   -1.756959   -1.279911
  H     -3.538746   -0.750552   -1.283677
  H     -2.092080   -0.225430   -2.150734
  H     -2.289695    1.962037   -0.883891
  H     -3.668668    1.320167    0.001252
  H     -2.290205    1.959409    0.889212
  H     -3.540965   -0.754472    1.278293
  H     -2.094739   -1.761097    1.273877
  H     -2.095763   -0.232348    2.149578
  H     -0.257154   -2.106362    0.000696
  H      2.186708   -2.123779    0.000313
  H      2.215120    2.137875    0.000362
  H     -0.204434    2.168801    0.000903
  H      4.110073    0.824159   -0.001070

 Total Charge           Charge          ....    0
 Multiplicity           Mult            ....    1
 Number of Electrons    NEL             ....   82
 Basis Dimension        Dim             ....  284

ORBITAL ENERGIES
----------------

  NO   OCC          E(Eh)            E(eV)
   0   2.0000     -18.983266      -516.5609
   1   2.0000     -10.092435      -274.6291
   2   2.0000     -10.048527      -273.4343
   3   2.0000     -10.031961      -272.9835
   4   2.0000     -10.031678      -272.9758
   5   2.0000     -10.031226      -272.9635
   6   2.0000     -10.031015      -272.9578
   7   2.0000     -10.027830      -272.8711
   8   2.0000     -10.017462      -272.5890
   9   2.0000     -10.015811      -272.5441
  10   2.0000     -10.015807      -272.5440
  11   2.0000      -1.026043       -27.9200
  12   2.0000      -0.828485       -22.5442
  13   2.0000      -0.781745       -21.2724
  14   2.0000      -0.717777       -19.5317
  15   2.0000      -0.696688       -18.9578
  16   2.0000      -0.654199       -17.8016
  17   2.0000      -0.652383       -17.7523
  18   2.0000      -0.593809       -16.1584
  19   2.0000      -0.575899       -15.6710
  20   2.0000      -0.518759       -14.1162
  21   2.0000      -0.516527       -14.0554
  22   2.0000      -0.454648       -12.3716
  23   2.0000      -0.437765       -11.9122
  24   2.0000      -0.417629       -11.3643
  25   2.0000      -0.410717       -11.1762
  26   2.0000      -0.399685       -10.8760
  27   2.0000      -0.389464       -10.5978
  28   2.0000      -0.380448       -10.3525
  29   2.0000      -0.372870       -10.1463
  30   2.0000      -0.361936        -9.8488
  31   2.0000      -0.355953        -9.6860
  32   2.0000      -0.341944        -9.3048
  33   2.0000      -0.334215        -9.0945
  34   2.0000      -0.314665        -8.5625
  35   2.0000      -0.311979        -8.4894
  36   2.0000      -0.293408        -7.9841
  37   2.0000      -0.292784        -7.9671
  38   2.0000      -0.285277        -7.7628
  39   2.0000      -0.235505        -6.4084
  40   2.0000      -0.198200        -5.3933
  41   0.0000      -0.031109        -0.8465
  42   0.0000      -0.012035        -0.3275
  43   0.0000       0.057605         1.5675
  44   0.0000       0.074588         2.0296
  45   0.0000       0.089476         2.4348

MULLIKEN ATOMIC CHARGES
-----------------------
   0 C :   -0.486040
   1 C :    0.180432
   2 C :   -0.589705
   3 C :   -0.486084
   4 C :    0.104343
   5 C :   -0.233376
   6 C :   -0.322098
   7 C :    0.435676
   8 C :   -0.358107
   9 C :   -0.152078
  10 O :   -0.415009
  11 H :    0.153242
  12 H :    0.150780
  13 H :    0.163169
  14 H :    0.166613
  15 H :    0.160613
  16 H :    0.166777
  17 H :    0.150819
  18 H :    0.153145
  19 H :    0.163173
  20 H :    0.147689
  21 H :    0.154393
  22 H :    0.136785
  23 H :    0.144006
  24 H :    0.310842
Sum of atomic charges:   -0.0000000

LOEWDIN ATOMIC CHARGES
----------------------
   0 C :   -0.392155
   1 C :   -0.186787
   2 C :   -0.406670
   3 C :   -0.392200
   4 C :   -0.093894
   5 C :   -0.142626
   6 C :   -0.139033
   7 C :    0.178029
   8 C :   -0.172779
   9 C :   -0.146292
  10 O :   -0.498731
  11 H :    0.156323
  12 H :    0.154649
  13 H :    0.161582
  14 H :    0.158575
  15 H :    0.158819
  16 H :    0.158611
  17 H :    0.154667
  18 H :    0.156279
  19 H :    0.161585
  20 H :    0.169605
  21 H :    0.179093
  22 H :    0.167288
  23 H :    0.172609
  24 H :    0.283452

  Mayer bond orders larger than 0.100000
B(  0-C ,  1-C ) :   0.9690 B(  0-C , 11-H ) :   0.9644 B(  0-C , 12-H ) :   0.9755
B(  0-C , 13-H ) :   0.9726 B(  1-C ,  2-C ) :   0.8755 B(  1-C ,  3-C ) :   0.9688
B(  1-C ,  4-C ) :   0.7815 B(  2-C , 14-H ) :   0.9791 B(  2-C , 15-H ) :   0.9765
B(  2-C , 16-H ) :   0.9793 B(  3-C , 17-H ) :   0.9756 B(  3-C , 18-H ) :   0.9644
B(  3-C , 19-H ) :   0.9726 B(  4-C ,  5-C ) :   1.3919 B(  4-C ,  9-C ) :   1.4757
B(  5-C ,  6-C ) :   1.4291 B(  5-C , 20-H ) :   0.9457 B(  6-C ,  7-C ) :   1.4180
B(  6-C , 21-H ) :   0.9446 B(  7-C ,  8-C ) :   1.3445 B(  7-C , 10-O ) :   0.9210
B(  8-C ,  9-C ) :   1.4279 B(  8-C , 22-H ) :   0.9107 B(  9-C , 23-H ) :   0.9305
B( 10-O , 24-H ) :   0.8834

Dispersion correction           -0.009176352
FINAL SINGLE POINT ENERGY      -464.600728800306

DIPOLE MOMENT
-------------

Method             : SCF
Type of density    : Electron Density
Multiplicity       :   1
Irrep              :   0
Energy             :  -464.6017239278037323 Eh
Relativity type    :
Basis              : AO
                                X                 Y                 Z
Electronic contribution:     14.534006990      -0.128744819       0.004030333
Nuclear contribution   :    -14.629683386       0.619561779      -0.004510090
                        -----------------------------------------
Total Dipole Moment    :     -0.095676396       0.490816961      -0.000479757
                        -----------------------------------------
Magnitude (a.u.)       :      0.500055489
Magnitude (Debye)      :      1.271040041

Rotational constants in cm-1:             0.085838             0.021590             0.019457
Rotational constants in MHz :          2573.351383           647.246459           583.298869

                             ****ORCA TERMINATED NORMALLY****
TOTAL RUN TIME: 0 days 0 hours 0 minutes 38 seconds 796 msec
