                         Program Version 6.0.0  -   RELEASE  -
|  1> ! pbe def2-sv(p) def2/J RI DEFGRID1 loosescf d4 GCP(DFT/SV(P)) printgap
|  2> %output
|  3>     printlevel normal
|  4> end
|  5> * xyz 0 1
|  6> C -2.1911856609 -1.1892554332 -0.0019594927
|  7> C -1.196412018 -0.3305849006 0.7924819248
|  8> H -1.6810862649 -0.0564761012 1.7357793412
|  9> C -0.8584268472 0.9750362259 0.049739159
| 10> H -1.0607061268 0.8497234637 -1.0271181066
| 11> C 0.6296870507 1.2906622882 0.2282013545
| 12> H 0.8527444078 1.4083772597 1.2941869474
| 13> C 1.4579786308 0.1315791025 -0.334756201
| 14> H 1.2889308075 0.063384909 -1.4233741869
| 15> C 1.0158014709 -1.2089842325 0.3044157137
| 16> H 1.8494074279 -1.578518318 0.913931802
| 17> O -0.0401774979 -1.0454713434 1.2181837598
| 18> O 0.7678300884 -2.1906477246 -0.6429560801
| 19> O 2.8288964051 0.3039469847 -0.0786290346
| 20> O 0.9711466378 2.5166256964 -0.3721931683
| 21> O -1.6748365672 1.9991993985 0.5637319082
| 22> O -1.7410019243 -1.3693183467 -1.3336271363
| 23> H -3.1512272619 -0.6638025758 0.0025462688
| 24> H -2.2912033435 -2.1539745397 0.5064068923
| 25> H -0.0755022022 -1.983903964 -1.1064979693
| 26> H 3.0667282328 1.2285976228 -0.2571960601
| 27> H 0.8145591733 2.4665876479 -1.3282336357
| 28> H -1.2476610285 2.8530786887 0.3877723659
| 29> H -2.3989063728 -1.8844240531 -1.8228590033
| 30> *
| 31>
| 32>                          ****END OF INPUT****

CARTESIAN COORDINATES (ANGSTROEM)
---------------------------------
  C     -2.191186   -1.189255   -0.001959
  C     -1.196412   -0.330585    0.792482
  H     -1.681086   -0.056476    1.735779
  C     -0.858427    0.975036    0.049739
  H     -1.060706    0.849723   -1.027118
  C      0.629687    1.290662    0.228201
  H      0.852744    1.408377    1.294187
  C      1.457979    0.131579   -0.334756
  H      1.288931    0.063385   -1.423374
  C      1.015801   -1.208984    0.304416
  H      1.849407   -1.578518    0.913932
  O     -0.040177   -1.045471    1.218184
  O      0.767830   -2.190648   -0.642956
  O      2.828896    0.303947   -0.078629
  O      0.971147    2.516626   -0.372193
  O     -1.674837    1.999199    0.563732
  O     -1.741002   -1.369318   -1.333627
  H     -3.151227   -0.663803    0.002546
  H     -2.291203   -2.153975    0.506407
  H     -0.075502   -1.983904   -1.106498
  H      3.066728    1.228598   -0.257196
  H      0.814559    2.466588   -1.328234
  H     -1.247661    2.853079    0.387772
  H     -2.398906   -1.884424   -1.822859

 Total Charge           Charge          ....    0
 Multiplicity           Mult            ....    1
 Number of Electrons    NEL             ....   96
 Basis Dimension        Dim             ....  192

ORBITAL ENERGIES
----------------

  NO   OCC          E(Eh)            E(eV)
   0   2.0000     -18.795361      -511.4478
   1   2.0000     -18.775611      -510.9104
   2   2.0000     -18.761561      -510.5280
   3   2.0000     -18.751699      -510.2597
   4   2.0000     -18.745489      -510.0907
   5   2.0000     -18.727091      -509.5901
   6   2.0000      -9.970415      -271.3088
   7   2.0000      -9.951756      -270.8010
   8   2.0000      -9.951249      -270.7872
   9   2.0000      -9.945222      -270.6232
  10   2.0000      -9.944261      -270.5971
  11   2.0000      -9.935597      -270.3613
  12   2.0000      -0.974723       -26.5236
  13   2.0000      -0.959961       -26.1219
  14   2.0000      -0.952528       -25.9196
  15   2.0000      -0.927642       -25.2424
  16   2.0000      -0.916250       -24.9324
  17   2.0000      -0.890743       -24.2383
  18   2.0000      -0.710672       -19.3384
  19   2.0000      -0.691149       -18.8071
  20   2.0000      -0.627261       -17.0686
  21   2.0000      -0.585653       -15.9364
  22   2.0000      -0.571323       -15.5465
  23   2.0000      -0.533605       -14.5201
  24   2.0000      -0.494620       -13.4593
  25   2.0000      -0.486728       -13.2445
  26   2.0000      -0.472397       -12.8546
  27   2.0000      -0.466476       -12.6935
  28   2.0000      -0.451708       -12.2916
  29   2.0000      -0.431579       -11.7439
  30   2.0000      -0.424221       -11.5436
  31   2.0000      -0.409330       -11.1384
  32   2.0000      -0.397125       -10.8063
  33   2.0000      -0.382290       -10.4026
  34   2.0000      -0.364823        -9.9273
  35   2.0000      -0.342205        -9.3119
  36   2.0000      -0.331008        -9.0072
  37   2.0000      -0.321029        -8.7356
  38   2.0000      -0.300781        -8.1847
  39   2.0000      -0.289472        -7.8769
  40   2.0000      -0.287565        -7.8250
  41   2.0000      -0.277313        -7.5461
  42   2.0000      -0.263979        -7.1832
  43   2.0000      -0.249982        -6.8024
  44   2.0000      -0.232624        -6.3300
  45   2.0000      -0.215427        -5.8621
  46   2.0000      -0.212326        -5.7777
  47   2.0000      -0.202220        -5.5027
  48   0.0000       0.000564         0.0154
  49   0.0000       0.006533         0.1778
  50   0.0000       0.044122         1.2006
  51   0.0000       0.054622         1.4863
  52   0.0000       0.056277         1.5314

MULLIKEN ATOMIC CHARGES
-----------------------
   0 C :    0.020131
   1 C :    0.059605
   2 H :    0.090657
   3 C :    0.018106
   4 H :    0.051910
   5 C :    0.031209
   6 H :    0.075075
   7 C :    0.033372
   8 H :    0.036043
   9 C :    0.218292
  10 H :    0.076553
  11 O :   -0.306473
  12 O :   -0.422101
  13 O :   -0.410144
  14 O :   -0.422479
  15 O :   -0.417626
  16 O :   -0.442276
  17 H :    0.096801
  18 H :    0.100777
  19 H :    0.290499
  20 H :    0.298428
  21 H :    0.298933
  22 H :    0.300301
  23 H :    0.324404
Sum of atomic charges:    0.0000000

LOEWDIN ATOMIC CHARGES
----------------------
   0 C :   -0.135536
   1 C :   -0.057145
   2 H :    0.133255
   3 C :   -0.081065
   4 H :    0.095525
   5 C :   -0.095108
   6 H :    0.124249
   7 C :   -0.090356
   8 H :    0.093922
   9 C :    0.003676
  10 H :    0.117310
  11 O :   -0.141999
  12 O :   -0.327319
  13 O :   -0.316916
  14 O :   -0.310294
  15 O :   -0.325325
  16 O :   -0.322738
  17 H :    0.116704
  18 H :    0.113155
  19 H :    0.260883
  20 H :    0.280014
  21 H :    0.284393
  22 H :    0.280395
  23 H :    0.300321

  Mayer bond orders larger than 0.100000
B(  0-C ,  1-C ) :   1.0808 B(  0-C , 16-O ) :   1.0052 B(  0-C , 17-H ) :   0.9119
B(  0-C , 18-H ) :   0.9096 B(  1-C ,  2-H ) :   0.8810 B(  1-C ,  3-C ) :   0.9856
B(  1-C , 11-O ) :   1.0413 B(  3-C ,  4-H ) :   0.8682 B(  3-C ,  5-C ) :   1.0247
B(  3-C , 15-O ) :   1.0825 B(  5-C ,  6-H ) :   0.8530 B(  5-C ,  7-C ) :   1.0259
B(  5-C , 14-O ) :   1.0057 B(  7-C ,  8-H ) :   0.8750 B(  7-C ,  9-C ) :   0.9688
B(  7-C , 13-O ) :   1.0834 B(  9-C , 10-H ) :   0.8882 B(  9-C , 11-O ) :   1.0425
B(  9-C , 12-O ) :   1.1374 B( 12-O , 19-H ) :   0.7807 B( 13-O , 20-H ) :   0.8358
B( 14-O , 21-H ) :   0.8448 B( 15-O , 22-H ) :   0.8299 B( 16-O , 19-H ) :   0.1387
B( 16-O , 23-H ) :   0.8363

Dispersion correction           -0.025029043
FINAL SINGLE POINT ENERGY      -685.695071106316

DIPOLE MOMENT
-------------

Method             : SCF
Type of density    : Electron Density
Multiplicity       :   1
Irrep              :   0
Energy             :  -685.8279051480294584 Eh
Relativity type    :
Basis              : AO
                                X                 Y                 Z
Electronic contribution:      2.487178348       0.057152153       0.947942145
Nuclear contribution   :     -3.768033998       0.517902332      -2.002850757
                        -----------------------------------------
Total Dipole Moment    :     -1.280855650       0.575054484      -1.054908612
                        -----------------------------------------
Magnitude (a.u.)       :      1.756163727
Magnitude (Debye)      :      4.463813448

Rotational constants in cm-1:             0.037620             0.031208             0.020784
Rotational constants in MHz :          1127.827119           935.595451           623.091097

                             ****ORCA TERMINATED NORMALLY****
TOTAL RUN TIME: 0 days 0 hours 0 minutes 12 seconds 337 msec
