                         Program Version 6.0.0  -   RELEASE  -
|  1> ! pbe def2-sv(p) def2/J RI DEFGRID1 loosescf d4 GCP(DFT/SV(P)) printgap
|  2> %output
|  3>     printlevel normal
|  4> end
|  5> * xyz 0 1
|  6> C -2.5583857738 -0.686378621 -0.3016537644
|  7> C -1.1606842731 -0.3130822808 0.2094160093
|  8> H -1.1749583706 -0.2309550827 1.3083743542
|  9> C -0.702495453 1.0329912776 -0.3688321555
| 10> H -0.700561368 0.9519184569 -1.4688333416
| 11> C 0.7226006933 1.3298866275 0.1183755429
| 12> H 0.6958730039 1.5013708128 1.2013378823
| 13> C 1.6711729004 0.1550174811 -0.1635964018
| 14> H 1.8464571353 0.0639153038 -1.2474710174
| 15> C 1.0490878833 -1.1708244833 0.3048330795
| 16> H 1.0413943286 -1.170032096 1.4154774866
| 17> O -0.2639571541 -1.3340460811 -0.1780561772
| 18> O 1.8081728413 -2.2071676677 -0.193287745
| 19> O 2.8848329223 0.3167278103 0.5219382975
| 20> O 1.2132257449 2.5299208194 -0.4307272532
| 21> O -1.5975218463 2.0323763379 0.0447872225
| 22> O -3.1479899458 -1.7453043114 0.4034836064
| 23> H -2.4670178232 -1.0298672914 -1.3335502415
| 24> H -3.181607063 0.2141224401 -0.2657868999
| 25> H 1.3450721295 -3.0470000645 -0.0433104145
| 26> H 3.2389033542 1.1992935243 0.3261822948
| 27> H 1.2865522979 2.4461316284 -1.3938096058
| 28> H -1.1773713598 2.8985697896 -0.0816519095
| 29> H -3.3248653652 -1.4713425459 1.3147627941
| 30> *
| 31>
| 32>                          ****END OF INPUT****

CARTESIAN COORDINATES (ANGSTROEM)
---------------------------------
  C     -2.558386   -0.686379   -0.301654
  C     -1.160684   -0.313082    0.209416
  H     -1.174958   -0.230955    1.308374
  C     -0.702495    1.032991   -0.368832
  H     -0.700561    0.951918   -1.468833
  C      0.722601    1.329887    0.118376
  H      0.695873    1.501371    1.201338
  C      1.671173    0.155017   -0.163596
  H      1.846457    0.063915   -1.247471
  C      1.049088   -1.170824    0.304833
  H      1.041394   -1.170032    1.415477
  O     -0.263957   -1.334046   -0.178056
  O      1.808173   -2.207168   -0.193288
  O      2.884833    0.316728    0.521938
  O      1.213226    2.529921   -0.430727
  O     -1.597522    2.032376    0.044787
  O     -3.147990   -1.745304    0.403484
  H     -2.467018   -1.029867   -1.333550
  H     -3.181607    0.214122   -0.265787
  H      1.345072   -3.047000   -0.043310
  H      3.238903    1.199294    0.326182
  H      1.286552    2.446132   -1.393810
  H     -1.177371    2.898570   -0.081652
  H     -3.324865   -1.471343    1.314763

 Total Charge           Charge          ....    0
 Multiplicity           Mult            ....    1
 Number of Electrons    NEL             ....   96
 Basis Dimension        Dim             ....  192

ORBITAL ENERGIES
----------------

  NO   OCC          E(Eh)            E(eV)
   0   2.0000     -18.777783      -510.9695
   1   2.0000     -18.771805      -510.8068
   2   2.0000     -18.760626      -510.5026
   3   2.0000     -18.756495      -510.3902
   4   2.0000     -18.751902      -510.2652
   5   2.0000     -18.744687      -510.0689
   6   2.0000      -9.987390      -271.7707
   7   2.0000      -9.951130      -270.7840
   8   2.0000      -9.949821      -270.7484
   9   2.0000      -9.947535      -270.6862
  10   2.0000      -9.944765      -270.6108
  11   2.0000      -9.929154      -270.1860
  12   2.0000      -0.984657       -26.7939
  13   2.0000      -0.961384       -26.1606
  14   2.0000      -0.937394       -25.5078
  15   2.0000      -0.924847       -25.1664
  16   2.0000      -0.922537       -25.1035
  17   2.0000      -0.910966       -24.7886
  18   2.0000      -0.709262       -19.3000
  19   2.0000      -0.693753       -18.8780
  20   2.0000      -0.621578       -16.9140
  21   2.0000      -0.587868       -15.9967
  22   2.0000      -0.562212       -15.2986
  23   2.0000      -0.539035       -14.6679
  24   2.0000      -0.502167       -13.6647
  25   2.0000      -0.494944       -13.4681
  26   2.0000      -0.484239       -13.1768
  27   2.0000      -0.458441       -12.4748
  28   2.0000      -0.442800       -12.0492
  29   2.0000      -0.441388       -12.0108
  30   2.0000      -0.427067       -11.6211
  31   2.0000      -0.408007       -11.1024
  32   2.0000      -0.387407       -10.5419
  33   2.0000      -0.383638       -10.4393
  34   2.0000      -0.366339        -9.9686
  35   2.0000      -0.351835        -9.5739
  36   2.0000      -0.323767        -8.8101
  37   2.0000      -0.311661        -8.4807
  38   2.0000      -0.301453        -8.2029
  39   2.0000      -0.297291        -8.0897
  40   2.0000      -0.292288        -7.9536
  41   2.0000      -0.275046        -7.4844
  42   2.0000      -0.257367        -7.0033
  43   2.0000      -0.246098        -6.6967
  44   2.0000      -0.238324        -6.4851
  45   2.0000      -0.219635        -5.9766
  46   2.0000      -0.216797        -5.8994
  47   2.0000      -0.207709        -5.6520
  48   0.0000       0.000272         0.0074
  49   0.0000       0.029953         0.8151
  50   0.0000       0.035936         0.9779
  51   0.0000       0.041422         1.1272
  52   0.0000       0.050409         1.3717

MULLIKEN ATOMIC CHARGES
-----------------------
   0 C :    0.094380
   1 C :   -0.003452
   2 H :    0.038659
   3 C :    0.047787
   4 H :    0.042076
   5 C :    0.034723
   6 H :    0.068910
   7 C :    0.043795
   8 H :    0.046219
   9 C :    0.202474
  10 H :    0.040293
  11 O :   -0.302159
  12 O :   -0.371748
  13 O :   -0.405628
  14 O :   -0.420485
  15 O :   -0.412637
  16 O :   -0.430536
  17 H :    0.084005
  18 H :    0.092839
  19 H :    0.308118
  20 H :    0.301603
  21 H :    0.301469
  22 H :    0.304724
  23 H :    0.294571
Sum of atomic charges:    0.0000000

LOEWDIN ATOMIC CHARGES
----------------------
   0 C :   -0.127724
   1 C :   -0.067662
   2 H :    0.098777
   3 C :   -0.079258
   4 H :    0.096926
   5 C :   -0.092894
   6 H :    0.120275
   7 C :   -0.086542
   8 H :    0.101743
   9 C :    0.009811
  10 H :    0.082945
  11 O :   -0.146978
  12 O :   -0.289111
  13 O :   -0.312990
  14 O :   -0.312240
  15 O :   -0.319118
  16 O :   -0.331795
  17 H :    0.119498
  18 H :    0.107312
  19 H :    0.291545
  20 H :    0.283968
  21 H :    0.285970
  22 H :    0.284950
  23 H :    0.282591

  Mayer bond orders larger than 0.100000
B(  0-C ,  1-C ) :   1.0307 B(  0-C , 16-O ) :   1.0887 B(  0-C , 17-H ) :   0.9034
B(  0-C , 18-H ) :   0.9176 B(  1-C ,  2-H ) :   0.8695 B(  1-C ,  3-C ) :   0.9881
B(  1-C , 11-O ) :   1.0000 B(  3-C ,  4-H ) :   0.8678 B(  3-C ,  5-C ) :   1.0053
B(  3-C , 15-O ) :   1.0641 B(  5-C ,  6-H ) :   0.8606 B(  5-C ,  7-C ) :   1.0125
B(  5-C , 14-O ) :   1.0184 B(  7-C ,  8-H ) :   0.8608 B(  7-C ,  9-C ) :   0.9833
B(  7-C , 13-O ) :   1.0808 B(  9-C , 10-H ) :   0.8848 B(  9-C , 11-O ) :   1.0129
B(  9-C , 12-O ) :   1.1952 B( 12-O , 19-H ) :   0.8392 B( 13-O , 20-H ) :   0.8377
B( 14-O , 21-H ) :   0.8453 B( 15-O , 22-H ) :   0.8307 B( 16-O , 23-H ) :   0.8541

Dispersion correction           -0.023507451
FINAL SINGLE POINT ENERGY      -685.695463464601

DIPOLE MOMENT
-------------

Method             : SCF
Type of density    : Electron Density
Multiplicity       :   1
Irrep              :   0
Energy             :  -685.8246370562354741 Eh
Relativity type    :
Basis              : AO
                                X                 Y                 Z
Electronic contribution:      2.361920739      -1.275648110       0.133062568
Nuclear contribution   :     -2.399809580       2.176264046      -0.249200105
                        -----------------------------------------
Total Dipole Moment    :     -0.037888842       0.900615936      -0.116137537
                        -----------------------------------------
Magnitude (a.u.)       :      0.908863332
Magnitude (Debye)      :      2.310146999

Rotational constants in cm-1:             0.039423             0.025500             0.016353
Rotational constants in MHz :          1181.871426           764.462047           490.253728

                             ****ORCA TERMINATED NORMALLY****
TOTAL RUN TIME: 0 days 0 hours 0 minutes 11 seconds 707 msec
