                         Program Version 6.0.0  -   RELEASE  -
|  1> ! r2scan-3c def2/J RI DEFGRID2 scfconv6 printgap
|  2> %output
|  3>     printlevel normal
|  4> end
|  5> %cpcm
|  6>     smd true
|  7>     smdsolvent "water"
|  8> end
|  9> * xyz 0 1
| 10> C 1.0398581601 -1.255943744 0.2257984017
| 11> C 0.5215336653 -0.0024501869 -0.484699458
| 12> C 1.0278177003 1.2589611408 0.2195257918
| 13> C -0.9850296161 -0.0153504083 -0.5551306916
| 14> C -1.7882556255 0.0139580815 0.4923955305
| 15> H 0.6872519251 -2.1520835976 -0.2796932219
| 16> H 0.6897377556 -1.2819140477 1.2542917003
| 17> H 2.1272449739 -1.2640764523 0.2292776343
| 18> H 0.9139600369 -0.0028945646 -1.5070468192
| 19> H 2.1150621262 1.2804389687 0.2156196118
| 20> H 0.6608931957 2.1491156442 -0.2863541319
| 21> H 0.6854469642 1.2842144763 1.2505020265
| 22> H -1.4116437507 -0.0564274023 -1.5487848523
| 23> H -2.8595399776 -0.0003343938 0.3868802688
| 24> H -1.4149462128 0.0537935549 1.5020671558
| 25> *
| 26>
| 27>                          ****END OF INPUT****

CARTESIAN COORDINATES (ANGSTROEM)
---------------------------------
  C      1.039858   -1.255944    0.225798
  C      0.521534   -0.002450   -0.484699
  C      1.027818    1.258961    0.219526
  C     -0.985030   -0.015350   -0.555131
  C     -1.788256    0.013958    0.492396
  H      0.687252   -2.152084   -0.279693
  H      0.689738   -1.281914    1.254292
  H      2.127245   -1.264076    0.229278
  H      0.913960   -0.002895   -1.507047
  H      2.115062    1.280439    0.215620
  H      0.660893    2.149116   -0.286354
  H      0.685447    1.284214    1.250502
  H     -1.411644   -0.056427   -1.548785
  H     -2.859540   -0.000334    0.386880
  H     -1.414946    0.053794    1.502067

 Total Charge           Charge          ....    0
 Multiplicity           Mult            ....    1
 Number of Electrons    NEL             ....   40
 Basis Dimension        Dim             ....  145

ORBITAL ENERGIES
----------------

  NO   OCC          E(Eh)            E(eV)
   0   2.0000     -10.031970      -272.9838
   1   2.0000     -10.027767      -272.8694
   2   2.0000     -10.012717      -272.4599
   3   2.0000     -10.009969      -272.3851
   4   2.0000     -10.009674      -272.3771
   5   2.0000      -0.777613       -21.1599
   6   2.0000      -0.698313       -19.0021
   7   2.0000      -0.643817       -17.5191
   8   2.0000      -0.577509       -15.7148
   9   2.0000      -0.492048       -13.3893
  10   2.0000      -0.450364       -12.2550
  11   2.0000      -0.402931       -10.9643
  12   2.0000      -0.378133       -10.2895
  13   2.0000      -0.373285       -10.1576
  14   2.0000      -0.352946        -9.6042
  15   2.0000      -0.347007        -9.4425
  16   2.0000      -0.305645        -8.3170
  17   2.0000      -0.292698        -7.9647
  18   2.0000      -0.281798        -7.6681
  19   2.0000      -0.234574        -6.3831
  20   0.0000      -0.016154        -0.4396
  21   0.0000       0.096370         2.6224
  22   0.0000       0.131019         3.5652
  23   0.0000       0.138848         3.7782
  24   0.0000       0.144310         3.9269

MULLIKEN ATOMIC CHARGES
-----------------------
   0 C :   -0.519709
   1 C :    0.015149
   2 C :   -0.519972
   3 C :   -0.175158
   4 C :   -0.427298
   5 H :    0.159436
   6 H :    0.162228
   7 H :    0.155840
   8 H :    0.154122
   9 H :    0.156103
  10 H :    0.159754
  11 H :    0.161335
  12 H :    0.182183
  13 H :    0.169751
  14 H :    0.166235
Sum of atomic charges:    0.0000000

LOEWDIN ATOMIC CHARGES
----------------------
   0 C :   -0.412043
   1 C :   -0.242913
   2 C :   -0.413012
   3 C :   -0.195967
   4 C :   -0.332491
   5 H :    0.157463
   6 H :    0.157145
   7 H :    0.155667
   8 H :    0.161620
   9 H :    0.155772
  10 H :    0.157470
  11 H :    0.157062
  12 H :    0.168837
  13 H :    0.162855
  14 H :    0.162536

  Mayer bond orders larger than 0.100000
B(  0-C ,  1-C ) :   0.9072 B(  0-C ,  5-H ) :   0.9719 B(  0-C ,  6-H ) :   0.9769
B(  0-C ,  7-H ) :   0.9705 B(  1-C ,  2-C ) :   0.9073 B(  1-C ,  3-C ) :   0.8907
B(  1-C ,  8-H ) :   0.9689 B(  2-C ,  9-H ) :   0.9710 B(  2-C , 10-H ) :   0.9726
B(  2-C , 11-H ) :   0.9759 B(  3-C ,  4-C ) :   1.8903 B(  3-C , 12-H ) :   0.9473
B(  4-C , 13-H ) :   0.9551 B(  4-C , 14-H ) :   0.9853

Dispersion correction           -0.003513723
FINAL SINGLE POINT ENERGY      -196.453987909753

DIPOLE MOMENT
-------------

Method             : SCF
Type of density    : Electron Density
Multiplicity       :   1
Irrep              :   0
Energy             :  -196.4565054029893929 Eh
Relativity type    :
Basis              : AO
                                X                 Y                 Z
Electronic contribution:     -1.849554429      -0.015790269      -1.246254068
Nuclear contribution   :      2.057848162       0.009224276       1.141528911
                        -----------------------------------------
Total Dipole Moment    :      0.208293732      -0.006565993      -0.104725157
                        -----------------------------------------
Magnitude (a.u.)       :      0.233231108
Magnitude (Debye)      :      0.592826364

Rotational constants in cm-1:             0.224625             0.135686             0.107377
Rotational constants in MHz :          6734.091223          4067.749874          3219.096062

                             ****ORCA TERMINATED NORMALLY****
TOTAL RUN TIME: 0 days 0 hours 0 minutes 14 seconds 110 msec
