                         Program Version 6.0.0  -   RELEASE  -
|  1> ! pbe def2-sv(p) def2/J RI DEFGRID1 loosescf d4 GCP(DFT/SV(P)) printgap
|  2> %output
|  3>     printlevel normal
|  4> end
|  5> * xyz 0 1
|  6> C -2.552682408 -0.6705452523 -0.3608736856
|  7> C -1.1768239614 -0.3091469617 0.2097788437
|  8> H -1.2438475318 -0.2699257847 1.3099569269
|  9> C -0.7062746571 1.0616277813 -0.3197745399
| 10> H -0.6879866035 1.0359381882 -1.4144143511
| 11> C 0.7162216988 1.3280611533 0.1899932246
| 12> H 0.6847666146 1.4144891624 1.2929111915
| 13> C 1.637656347 0.1533072817 -0.1821873192
| 14> H 1.7202978589 0.087782058 -1.2722244232
| 15> C 1.0333727196 -1.1645326823 0.3271012862
| 16> H 0.996287242 -1.1364543823 1.4409744093
| 17> O -0.2755295205 -1.3384301767 -0.163449673
| 18> O 1.8109017893 -2.211561972 -0.1166940131
| 19> O 2.9394578097 0.3806849257 0.2867160984
| 20> O 1.1955683908 2.529839177 -0.3557487127
| 21> O -1.6073139168 2.0790437364 0.0158066795
| 22> O -3.161667457 -1.7319695934 0.324951802
| 23> H -2.4352812236 -0.9011309611 -1.4255370245
| 24> H -3.2113999408 0.1923614099 -0.2500714244
| 25> H 1.3392750828 -3.0509091655 0.0025375143
| 26> H 2.9960568329 0.1987015747 1.2364445748
| 27> H 2.1651426836 2.5238143343 -0.3054861114
| 28> H -1.5025429547 2.3272702009 0.9461567782
| 29> H -2.6346739151 -2.53257788 0.1926183117
| 30> *
| 31>
| 32>                          ****END OF INPUT****

CARTESIAN COORDINATES (ANGSTROEM)
---------------------------------
  C     -2.552682   -0.670545   -0.360874
  C     -1.176824   -0.309147    0.209779
  H     -1.243848   -0.269926    1.309957
  C     -0.706275    1.061628   -0.319775
  H     -0.687987    1.035938   -1.414414
  C      0.716222    1.328061    0.189993
  H      0.684767    1.414489    1.292911
  C      1.637656    0.153307   -0.182187
  H      1.720298    0.087782   -1.272224
  C      1.033373   -1.164533    0.327101
  H      0.996287   -1.136454    1.440974
  O     -0.275530   -1.338430   -0.163450
  O      1.810902   -2.211562   -0.116694
  O      2.939458    0.380685    0.286716
  O      1.195568    2.529839   -0.355749
  O     -1.607314    2.079044    0.015807
  O     -3.161667   -1.731970    0.324952
  H     -2.435281   -0.901131   -1.425537
  H     -3.211400    0.192361   -0.250071
  H      1.339275   -3.050909    0.002538
  H      2.996057    0.198702    1.236445
  H      2.165143    2.523814   -0.305486
  H     -1.502543    2.327270    0.946157
  H     -2.634674   -2.532578    0.192618

 Total Charge           Charge          ....    0
 Multiplicity           Mult            ....    1
 Number of Electrons    NEL             ....   96
 Basis Dimension        Dim             ....  192

ORBITAL ENERGIES
----------------

  NO   OCC          E(Eh)            E(eV)
   0   2.0000     -18.785620      -511.1827
   1   2.0000     -18.770501      -510.7713
   2   2.0000     -18.770274      -510.7651
   3   2.0000     -18.756758      -510.3973
   4   2.0000     -18.749587      -510.2022
   5   2.0000     -18.747219      -510.1378
   6   2.0000     -10.000618      -272.1307
   7   2.0000      -9.950497      -270.7668
   8   2.0000      -9.949080      -270.7282
   9   2.0000      -9.947117      -270.6748
  10   2.0000      -9.946776      -270.6655
  11   2.0000      -9.930490      -270.2224
  12   2.0000      -0.995610       -27.0919
  13   2.0000      -0.953043       -25.9336
  14   2.0000      -0.943168       -25.6649
  15   2.0000      -0.929579       -25.2951
  16   2.0000      -0.919159       -25.0116
  17   2.0000      -0.917349       -24.9623
  18   2.0000      -0.708849       -19.2888
  19   2.0000      -0.697538       -18.9810
  20   2.0000      -0.623280       -16.9603
  21   2.0000      -0.587495       -15.9866
  22   2.0000      -0.566365       -15.4116
  23   2.0000      -0.553464       -15.0605
  24   2.0000      -0.512317       -13.9409
  25   2.0000      -0.490285       -13.3413
  26   2.0000      -0.480463       -13.0741
  27   2.0000      -0.463996       -12.6260
  28   2.0000      -0.454485       -12.3672
  29   2.0000      -0.443560       -12.0699
  30   2.0000      -0.428817       -11.6687
  31   2.0000      -0.405110       -11.0236
  32   2.0000      -0.385881       -10.5003
  33   2.0000      -0.368617       -10.0306
  34   2.0000      -0.363519        -9.8918
  35   2.0000      -0.359433        -9.7807
  36   2.0000      -0.332850        -9.0573
  37   2.0000      -0.322076        -8.7641
  38   2.0000      -0.307325        -8.3627
  39   2.0000      -0.294495        -8.0136
  40   2.0000      -0.288515        -7.8509
  41   2.0000      -0.276862        -7.5338
  42   2.0000      -0.265725        -7.2307
  43   2.0000      -0.253830        -6.9071
  44   2.0000      -0.235917        -6.4196
  45   2.0000      -0.228385        -6.2147
  46   2.0000      -0.217114        -5.9080
  47   2.0000      -0.205644        -5.5959
  48   0.0000       0.007504         0.2042
  49   0.0000       0.016843         0.4583
  50   0.0000       0.022881         0.6226
  51   0.0000       0.037760         1.0275
  52   0.0000       0.044931         1.2226

MULLIKEN ATOMIC CHARGES
-----------------------
   0 C :    0.095021
   1 C :   -0.025171
   2 H :    0.039799
   3 C :    0.078675
   4 H :    0.069264
   5 C :    0.070848
   6 H :    0.015765
   7 C :    0.022651
   8 H :    0.081670
   9 C :    0.181838
  10 H :    0.019389
  11 O :   -0.320738
  12 O :   -0.365724
  13 O :   -0.408538
  14 O :   -0.401347
  15 O :   -0.400795
  16 O :   -0.431575
  17 H :    0.073430
  18 H :    0.095758
  19 H :    0.306712
  20 H :    0.303013
  21 H :    0.303050
  22 H :    0.302194
  23 H :    0.294808
Sum of atomic charges:    0.0000000

LOEWDIN ATOMIC CHARGES
----------------------
   0 C :   -0.126985
   1 C :   -0.082430
   2 H :    0.096963
   3 C :   -0.068180
   4 H :    0.122968
   5 C :   -0.083467
   6 H :    0.084529
   7 C :   -0.091754
   8 H :    0.127996
   9 C :   -0.003148
  10 H :    0.069974
  11 O :   -0.158768
  12 O :   -0.290622
  13 O :   -0.302390
  14 O :   -0.318407
  15 O :   -0.298059
  16 O :   -0.334671
  17 H :    0.103810
  18 H :    0.122444
  19 H :    0.290549
  20 H :    0.287887
  21 H :    0.282963
  22 H :    0.287577
  23 H :    0.281221

  Mayer bond orders larger than 0.100000
B(  0-C ,  1-C ) :   1.0496 B(  0-C , 16-O ) :   1.0801 B(  0-C , 17-H ) :   0.9093
B(  0-C , 18-H ) :   0.9080 B(  1-C ,  2-H ) :   0.8661 B(  1-C ,  3-C ) :   0.9639
B(  1-C , 11-O ) :   0.9674 B(  3-C ,  4-H ) :   0.8675 B(  3-C ,  5-C ) :   1.0060
B(  3-C , 15-O ) :   1.0447 B(  5-C ,  6-H ) :   0.8575 B(  5-C ,  7-C ) :   0.9979
B(  5-C , 14-O ) :   1.1259 B(  7-C ,  8-H ) :   0.8605 B(  7-C ,  9-C ) :   0.9827
B(  7-C , 13-O ) :   1.0298 B(  9-C , 10-H ) :   0.8781 B(  9-C , 11-O ) :   1.0140
B(  9-C , 12-O ) :   1.1985 B( 12-O , 19-H ) :   0.8382 B( 13-O , 20-H ) :   0.8439
B( 14-O , 21-H ) :   0.8295 B( 15-O , 22-H ) :   0.8458 B( 16-O , 23-H ) :   0.8519

Dispersion correction           -0.023596526
FINAL SINGLE POINT ENERGY      -685.694618580434

DIPOLE MOMENT
-------------

Method             : SCF
Type of density    : Electron Density
Multiplicity       :   1
Irrep              :   0
Energy             :  -685.8238138597145053 Eh
Relativity type    :
Basis              : AO
                                X                 Y                 Z
Electronic contribution:      2.223021168      -0.561304052      -0.630053461
Nuclear contribution   :     -1.688398234      -0.108131977       1.645300316
                        -----------------------------------------
Total Dipole Moment    :      0.534622934      -0.669436029       1.015246855
                        -----------------------------------------
Magnitude (a.u.)       :      1.328417274
Magnitude (Debye)      :      3.376568371

Rotational constants in cm-1:             0.039634             0.025567             0.016266
Rotational constants in MHz :          1188.193578           766.470006           487.638021

                             ****ORCA TERMINATED NORMALLY****
TOTAL RUN TIME: 0 days 0 hours 0 minutes 11 seconds 527 msec
