                         Program Version 6.0.0  -   RELEASE  -
|  1> ! r2scan-3c def2/J RI DEFGRID2 scfconv6 printgap
|  2> %output
|  3>     printlevel normal
|  4> end
|  5> * xyz 0 1
|  6> C -2.3811601792 0.0788304064 -0.009913746
|  7> C -0.9093812861 0.4684554547 0.0537552395
|  8> C 0.0032107871 -0.7101296039 -0.1113118771
|  9> C 1.3257926865 -0.6338433115 -0.0800121644
| 10> C 2.0795437676 0.642873173 0.1249170975
| 11> H -2.6124294734 -0.3801967815 -0.9686719611
| 12> H -3.0138421142 0.9548401981 0.1127034979
| 13> H -2.6213267374 -0.631347118 0.7783823875
| 14> H -0.6907181801 1.2042932966 -0.7265818619
| 15> H -0.6997196441 0.9545764046 1.0117708318
| 16> H -0.4770059318 -1.666606227 -0.2640845834
| 17> H 1.916369809 -1.5301875493 -0.2081069858
| 18> H 1.796682382 1.1046179072 1.0708245263
| 19> H 1.8446219526 1.3547103961 -0.6664268427
| 20> H 3.1511977737 0.4681630673 0.1290834505
| 21> *
| 22>
| 23>                          ****END OF INPUT****

CARTESIAN COORDINATES (ANGSTROEM)
---------------------------------
  C     -2.381160    0.078830   -0.009914
  C     -0.909381    0.468455    0.053755
  C      0.003211   -0.710130   -0.111312
  C      1.325793   -0.633843   -0.080012
  C      2.079544    0.642873    0.124917
  H     -2.612429   -0.380197   -0.968672
  H     -3.013842    0.954840    0.112703
  H     -2.621327   -0.631347    0.778382
  H     -0.690718    1.204293   -0.726582
  H     -0.699720    0.954576    1.011771
  H     -0.477006   -1.666606   -0.264085
  H      1.916370   -1.530188   -0.208107
  H      1.796682    1.104618    1.070825
  H      1.844622    1.354710   -0.666427
  H      3.151198    0.468163    0.129083

 Total Charge           Charge          ....    0
 Multiplicity           Mult            ....    1
 Number of Electrons    NEL             ....   40
 Basis Dimension        Dim             ....  145

ORBITAL ENERGIES
----------------

  NO   OCC          E(Eh)            E(eV)
   0   2.0000     -10.028790      -272.8972
   1   2.0000     -10.021750      -272.7057
   2   2.0000     -10.021574      -272.7009
   3   2.0000     -10.019023      -272.6315
   4   2.0000     -10.017928      -272.6017
   5   2.0000      -0.773490       -21.0477
   6   2.0000      -0.718257       -19.5448
   7   2.0000      -0.645909       -17.5761
   8   2.0000      -0.581769       -15.8307
   9   2.0000      -0.496114       -13.4999
  10   2.0000      -0.437477       -11.9044
  11   2.0000      -0.418687       -11.3931
  12   2.0000      -0.397685       -10.8216
  13   2.0000      -0.378990       -10.3128
  14   2.0000      -0.349216        -9.5027
  15   2.0000      -0.339035        -9.2256
  16   2.0000      -0.320275        -8.7151
  17   2.0000      -0.317817        -8.6482
  18   2.0000      -0.291981        -7.9452
  19   2.0000      -0.216533        -5.8922
  20   0.0000      -0.006577        -0.1790
  21   0.0000       0.095105         2.5879
  22   0.0000       0.108788         2.9603
  23   0.0000       0.127455         3.4682
  24   0.0000       0.142443         3.8761

MULLIKEN ATOMIC CHARGES
-----------------------
   0 C :   -0.496188
   1 C :   -0.215701
   2 C :   -0.178663
   3 C :   -0.141356
   4 C :   -0.472856
   5 H :    0.148439
   6 H :    0.144746
   7 H :    0.148951
   8 H :    0.148786
   9 H :    0.148039
  10 H :    0.152062
  11 H :    0.153255
  12 H :    0.155928
  13 H :    0.156780
  14 H :    0.147779
Sum of atomic charges:    0.0000000

LOEWDIN ATOMIC CHARGES
----------------------
   0 C :   -0.422420
   1 C :   -0.309929
   2 C :   -0.213781
   3 C :   -0.213588
   4 C :   -0.417950
   5 H :    0.151768
   6 H :    0.150417
   7 H :    0.151841
   8 H :    0.160636
   9 H :    0.160419
  10 H :    0.164576
  11 H :    0.160512
  12 H :    0.161065
  13 H :    0.161353
  14 H :    0.155081

  Mayer bond orders larger than 0.100000
B(  0-C ,  1-C ) :   0.8928 B(  0-C ,  5-H ) :   0.9838 B(  0-C ,  6-H ) :   0.9757
B(  0-C ,  7-H ) :   0.9844 B(  1-C ,  2-C ) :   0.9192 B(  1-C ,  8-H ) :   0.9691
B(  1-C ,  9-H ) :   0.9704 B(  2-C ,  3-C ) :   1.9391 B(  2-C , 10-H ) :   0.9568
B(  3-C ,  4-C ) :   0.9024 B(  3-C , 11-H ) :   0.9523 B(  4-C , 12-H ) :   0.9787
B(  4-C , 13-H ) :   0.9781 B(  4-C , 14-H ) :   0.9721

Dispersion correction           -0.003244781
FINAL SINGLE POINT ENERGY      -196.458270297208

DIPOLE MOMENT
-------------

Method             : SCF
Type of density    : Electron Density
Multiplicity       :   1
Irrep              :   0
Energy             :  -196.4611416292843273 Eh
Relativity type    :
Basis              : AO
                                X                 Y                 Z
Electronic contribution:      1.319435285      -1.564741858      -0.230695293
Nuclear contribution   :     -1.319228709       1.719540306       0.252267230
                        -----------------------------------------
Total Dipole Moment    :      0.000206576       0.154798447       0.021571936
                        -----------------------------------------
Magnitude (a.u.)       :      0.156294435
Magnitude (Debye)      :      0.397268882

Rotational constants in cm-1:             0.466326             0.084137             0.074214
Rotational constants in MHz :         13980.098398          2522.358840          2224.872828

                             ****ORCA TERMINATED NORMALLY****
TOTAL RUN TIME: 0 days 0 hours 0 minutes 12 seconds 55 msec
