                         Program Version 6.0.0  -   RELEASE  -
|  1> ! r2scan-3c def2/J RI DEFGRID2 scfconv6 printgap
|  2> %output
|  3>     printlevel normal
|  4> end
|  5> %cpcm
|  6>     smd true
|  7>     smdsolvent "water"
|  8> end
|  9> * xyz 0 1
| 10> C -2.3811601792 0.0788304064 -0.009913746
| 11> C -0.9093812861 0.4684554547 0.0537552395
| 12> C 0.0032107871 -0.7101296039 -0.1113118771
| 13> C 1.3257926865 -0.6338433115 -0.0800121644
| 14> C 2.0795437676 0.642873173 0.1249170975
| 15> H -2.6124294734 -0.3801967815 -0.9686719611
| 16> H -3.0138421142 0.9548401981 0.1127034979
| 17> H -2.6213267374 -0.631347118 0.7783823875
| 18> H -0.6907181801 1.2042932966 -0.7265818619
| 19> H -0.6997196441 0.9545764046 1.0117708318
| 20> H -0.4770059318 -1.666606227 -0.2640845834
| 21> H 1.916369809 -1.5301875493 -0.2081069858
| 22> H 1.796682382 1.1046179072 1.0708245263
| 23> H 1.8446219526 1.3547103961 -0.6664268427
| 24> H 3.1511977737 0.4681630673 0.1290834505
| 25> *
| 26>
| 27>                          ****END OF INPUT****

CARTESIAN COORDINATES (ANGSTROEM)
---------------------------------
  C     -2.381160    0.078830   -0.009914
  C     -0.909381    0.468455    0.053755
  C      0.003211   -0.710130   -0.111312
  C      1.325793   -0.633843   -0.080012
  C      2.079544    0.642873    0.124917
  H     -2.612429   -0.380197   -0.968672
  H     -3.013842    0.954840    0.112703
  H     -2.621327   -0.631347    0.778382
  H     -0.690718    1.204293   -0.726582
  H     -0.699720    0.954576    1.011771
  H     -0.477006   -1.666606   -0.264085
  H      1.916370   -1.530188   -0.208107
  H      1.796682    1.104618    1.070825
  H      1.844622    1.354710   -0.666427
  H      3.151198    0.468163    0.129083

 Total Charge           Charge          ....    0
 Multiplicity           Mult            ....    1
 Number of Electrons    NEL             ....   40
 Basis Dimension        Dim             ....  145

ORBITAL ENERGIES
----------------

  NO   OCC          E(Eh)            E(eV)
   0   2.0000     -10.021888      -272.7094
   1   2.0000     -10.019723      -272.6505
   2   2.0000     -10.017178      -272.5813
   3   2.0000     -10.014240      -272.5013
   4   2.0000     -10.010010      -272.3862
   5   2.0000      -0.770044       -20.9540
   6   2.0000      -0.712541       -19.3892
   7   2.0000      -0.641021       -17.4431
   8   2.0000      -0.576153       -15.6779
   9   2.0000      -0.491476       -13.3738
  10   2.0000      -0.433085       -11.7848
  11   2.0000      -0.412093       -11.2136
  12   2.0000      -0.392300       -10.6750
  13   2.0000      -0.372691       -10.1415
  14   2.0000      -0.341939        -9.3046
  15   2.0000      -0.332712        -9.0536
  16   2.0000      -0.313084        -8.5194
  17   2.0000      -0.312208        -8.4956
  18   2.0000      -0.286693        -7.8013
  19   2.0000      -0.216936        -5.9031
  20   0.0000      -0.006271        -0.1706
  21   0.0000       0.101787         2.7698
  22   0.0000       0.115704         3.1485
  23   0.0000       0.134648         3.6640
  24   0.0000       0.146357         3.9826

MULLIKEN ATOMIC CHARGES
-----------------------
   0 C :   -0.524123
   1 C :   -0.223861
   2 C :   -0.222186
   3 C :   -0.189809
   4 C :   -0.501032
   5 H :    0.157596
   6 H :    0.156665
   7 H :    0.157936
   8 H :    0.164462
   9 H :    0.164084
  10 H :    0.174531
  11 H :    0.177231
  12 H :    0.171727
  13 H :    0.172247
  14 H :    0.164531
Sum of atomic charges:    0.0000000

LOEWDIN ATOMIC CHARGES
----------------------
   0 C :   -0.429162
   1 C :   -0.312894
   2 C :   -0.227505
   3 C :   -0.227436
   4 C :   -0.425226
   5 H :    0.154122
   6 H :    0.153542
   7 H :    0.154129
   8 H :    0.165740
   9 H :    0.165600
  10 H :    0.169955
  11 H :    0.166336
  12 H :    0.166400
  13 H :    0.166624
  14 H :    0.159774

  Mayer bond orders larger than 0.100000
B(  0-C ,  1-C ) :   0.8852 B(  0-C ,  5-H ) :   0.9807 B(  0-C ,  6-H ) :   0.9735
B(  0-C ,  7-H ) :   0.9815 B(  1-C ,  2-C ) :   0.9008 B(  1-C ,  8-H ) :   0.9673
B(  1-C ,  9-H ) :   0.9689 B(  2-C ,  3-C ) :   1.9050 B(  2-C , 10-H ) :   0.9589
B(  3-C ,  4-C ) :   0.8913 B(  3-C , 11-H ) :   0.9582 B(  4-C , 12-H ) :   0.9738
B(  4-C , 13-H ) :   0.9730 B(  4-C , 14-H ) :   0.9686

Dispersion correction           -0.003244781
FINAL SINGLE POINT ENERGY      -196.457064318095

DIPOLE MOMENT
-------------

Method             : SCF
Type of density    : Electron Density
Multiplicity       :   1
Irrep              :   0
Energy             :  -196.4599356501721275 Eh
Relativity type    :
Basis              : AO
                                X                 Y                 Z
Electronic contribution:      1.321950401      -1.492698288      -0.220306827
Nuclear contribution   :     -1.319228709       1.719540306       0.252267230
                        -----------------------------------------
Total Dipole Moment    :      0.002721692       0.226842017       0.031960403
                        -----------------------------------------
Magnitude (a.u.)       :      0.229098616
Magnitude (Debye)      :      0.582322404

Rotational constants in cm-1:             0.466326             0.084137             0.074214
Rotational constants in MHz :         13980.098398          2522.358840          2224.872828

                             ****ORCA TERMINATED NORMALLY****
TOTAL RUN TIME: 0 days 0 hours 0 minutes 14 seconds 50 msec
