                         Program Version 6.0.0  -   RELEASE  -
|  1> ! pbe def2-sv(p) def2/J RI DEFGRID1 loosescf d4 GCP(DFT/SV(P)) printgap
|  2> %output
|  3>     printlevel normal
|  4> end
|  5> * xyz 0 1
|  6> C -2.2169613016 -0.8891700424 -0.1390185072
|  7> C -1.1243764707 -0.3326341039 0.7996320175
|  8> H -1.5735170201 -0.3122101367 1.800575351
|  9> C -0.709452611 1.1196481814 0.4789966825
| 10> H -1.5575934047 1.6198964579 -0.0028316347
| 11> C 0.5117441669 1.2309620529 -0.4627290062
| 12> H 0.8674848862 2.2672140854 -0.3916665794
| 13> C 1.6301041477 0.2961343922 0.0204184346
| 14> H 2.4328153799 0.2965667963 -0.7301100943
| 15> C 1.0785035127 -1.1400567223 0.1169062316
| 16> H 1.8202861358 -1.7906497542 0.6119654353
| 17> O -0.0318443856 -1.2432297667 0.9588023439
| 18> O 0.8491277956 -1.5779856898 -1.1905216963
| 19> O 2.0837250657 0.7620888631 1.264739194
| 20> O 0.1809210713 1.0061195687 -1.8075724442
| 21> O -0.4820643557 1.846706439 1.6633299841
| 22> O -1.8881424503 -0.962848835 -1.5007466661
| 23> H -3.1183569994 -0.2819045871 0.012739744
| 24> H -2.4315893395 -1.9156190054 0.1682572765
| 25> H 0.3562505795 -2.4126929426 -1.1883587192
| 26> H 2.854867322 0.2545032826 1.5559359527
| 27> H 0.3067222019 0.056854982 -2.0019537957
| 28> H 0.3775141624 1.5802227873 2.030995569
| 29> H -1.7365500679 -0.07202379 -1.8539254533
| 30> *
| 31>
| 32>                          ****END OF INPUT****

CARTESIAN COORDINATES (ANGSTROEM)
---------------------------------
  C     -2.216961   -0.889170   -0.139019
  C     -1.124376   -0.332634    0.799632
  H     -1.573517   -0.312210    1.800575
  C     -0.709453    1.119648    0.478997
  H     -1.557593    1.619896   -0.002832
  C      0.511744    1.230962   -0.462729
  H      0.867485    2.267214   -0.391667
  C      1.630104    0.296134    0.020418
  H      2.432815    0.296567   -0.730110
  C      1.078504   -1.140057    0.116906
  H      1.820286   -1.790650    0.611965
  O     -0.031844   -1.243230    0.958802
  O      0.849128   -1.577986   -1.190522
  O      2.083725    0.762089    1.264739
  O      0.180921    1.006120   -1.807572
  O     -0.482064    1.846706    1.663330
  O     -1.888142   -0.962849   -1.500747
  H     -3.118357   -0.281905    0.012740
  H     -2.431589   -1.915619    0.168257
  H      0.356251   -2.412693   -1.188359
  H      2.854867    0.254503    1.555936
  H      0.306722    0.056855   -2.001954
  H      0.377514    1.580223    2.030996
  H     -1.736550   -0.072024   -1.853925

 Total Charge           Charge          ....    0
 Multiplicity           Mult            ....    1
 Number of Electrons    NEL             ....   96
 Basis Dimension        Dim             ....  192

ORBITAL ENERGIES
----------------

  NO   OCC          E(Eh)            E(eV)
   0   2.0000     -18.785107      -511.1687
   1   2.0000     -18.782853      -511.1074
   2   2.0000     -18.772872      -510.8358
   3   2.0000     -18.753481      -510.3082
   4   2.0000     -18.747336      -510.1410
   5   2.0000     -18.735106      -509.8082
   6   2.0000      -9.999784      -272.1080
   7   2.0000      -9.958999      -270.9981
   8   2.0000      -9.946184      -270.6494
   9   2.0000      -9.941349      -270.5179
  10   2.0000      -9.939942      -270.4796
  11   2.0000      -9.933086      -270.2930
  12   2.0000      -0.993091       -27.0234
  13   2.0000      -0.958122       -26.0718
  14   2.0000      -0.933663       -25.4063
  15   2.0000      -0.928709       -25.2715
  16   2.0000      -0.920070       -25.0364
  17   2.0000      -0.910111       -24.7654
  18   2.0000      -0.701315       -19.0838
  19   2.0000      -0.698813       -19.0157
  20   2.0000      -0.623820       -16.9750
  21   2.0000      -0.598278       -16.2800
  22   2.0000      -0.581162       -15.8142
  23   2.0000      -0.533550       -14.5186
  24   2.0000      -0.500444       -13.6178
  25   2.0000      -0.494006       -13.4426
  26   2.0000      -0.476984       -12.9794
  27   2.0000      -0.462024       -12.5723
  28   2.0000      -0.441216       -12.0061
  29   2.0000      -0.434744       -11.8300
  30   2.0000      -0.426482       -11.6052
  31   2.0000      -0.408258       -11.1093
  32   2.0000      -0.382503       -10.4084
  33   2.0000      -0.380549       -10.3553
  34   2.0000      -0.375337       -10.2134
  35   2.0000      -0.350775        -9.5451
  36   2.0000      -0.346650        -9.4328
  37   2.0000      -0.329193        -8.9578
  38   2.0000      -0.304174        -8.2770
  39   2.0000      -0.297309        -8.0902
  40   2.0000      -0.285218        -7.7612
  41   2.0000      -0.270125        -7.3505
  42   2.0000      -0.257229        -6.9995
  43   2.0000      -0.255348        -6.9484
  44   2.0000      -0.240198        -6.5361
  45   2.0000      -0.235859        -6.4181
  46   2.0000      -0.211214        -5.7474
  47   2.0000      -0.198220        -5.3938
  48   0.0000      -0.000269        -0.0073
  49   0.0000       0.018019         0.4903
  50   0.0000       0.041328         1.1246
  51   0.0000       0.057810         1.5731
  52   0.0000       0.068023         1.8510

MULLIKEN ATOMIC CHARGES
-----------------------
   0 C :    0.021207
   1 C :    0.062122
   2 H :    0.077096
   3 C :    0.039085
   4 H :    0.072077
   5 C :    0.054515
   6 H :    0.087054
   7 C :   -0.006759
   8 H :    0.089647
   9 C :    0.200637
  10 H :    0.052748
  11 O :   -0.312512
  12 O :   -0.405538
  13 O :   -0.418808
  14 O :   -0.435349
  15 O :   -0.434601
  16 O :   -0.447934
  17 H :    0.080321
  18 H :    0.083132
  19 H :    0.316360
  20 H :    0.314028
  21 H :    0.313756
  22 H :    0.303746
  23 H :    0.293971
Sum of atomic charges:    0.0000000

LOEWDIN ATOMIC CHARGES
----------------------
   0 C :   -0.137452
   1 C :   -0.077002
   2 H :    0.126281
   3 C :   -0.072534
   4 H :    0.116579
   5 C :   -0.066324
   6 H :    0.120098
   7 C :   -0.088452
   8 H :    0.113380
   9 C :   -0.011265
  10 H :    0.091038
  11 O :   -0.143349
  12 O :   -0.304548
  13 O :   -0.302612
  14 O :   -0.316978
  15 O :   -0.324178
  16 O :   -0.340537
  17 H :    0.103248
  18 H :    0.112396
  19 H :    0.292373
  20 H :    0.295352
  21 H :    0.271821
  22 H :    0.273859
  23 H :    0.268804

  Mayer bond orders larger than 0.100000
B(  0-C ,  1-C ) :   1.0234 B(  0-C , 16-O ) :   1.1039 B(  0-C , 17-H ) :   0.9133
B(  0-C , 18-H ) :   0.9164 B(  1-C ,  2-H ) :   0.8805 B(  1-C ,  3-C ) :   0.9651
B(  1-C , 11-O ) :   0.9628 B(  3-C ,  4-H ) :   0.8953 B(  3-C ,  5-C ) :   0.9768
B(  3-C , 15-O ) :   1.0526 B(  5-C ,  6-H ) :   0.8988 B(  5-C ,  7-C ) :   1.0136
B(  5-C , 14-O ) :   1.0657 B(  7-C ,  8-H ) :   0.8990 B(  7-C ,  9-C ) :   0.9662
B(  7-C , 13-O ) :   1.0287 B(  9-C , 10-H ) :   0.9043 B(  9-C , 11-O ) :   1.0994
B(  9-C , 12-O ) :   1.0788 B( 12-O , 19-H ) :   0.8203 B( 12-O , 21-H ) :   0.1080
B( 13-O , 20-H ) :   0.8381 B( 14-O , 21-H ) :   0.7772 B( 15-O , 22-H ) :   0.8191
B( 16-O , 23-H ) :   0.8060

Dispersion correction           -0.026597933
FINAL SINGLE POINT ENERGY      -685.700208643143

DIPOLE MOMENT
-------------

Method             : SCF
Type of density    : Electron Density
Multiplicity       :   1
Irrep              :   0
Energy             :  -685.8349678285800337 Eh
Relativity type    :
Basis              : AO
                                X                 Y                 Z
Electronic contribution:      2.178931858      -0.184851445       0.293188530
Nuclear contribution   :     -1.304457500      -0.668458251       0.001838386
                        -----------------------------------------
Total Dipole Moment    :      0.874474358      -0.853309696       0.295026917
                        -----------------------------------------
Magnitude (a.u.)       :      1.256934255
Magnitude (Debye)      :      3.194872976

Rotational constants in cm-1:             0.040624             0.031338             0.027185
Rotational constants in MHz :          1217.874260           939.487971           814.976490

                             ****ORCA TERMINATED NORMALLY****
TOTAL RUN TIME: 0 days 0 hours 0 minutes 12 seconds 307 msec
