                         Program Version 6.0.0  -   RELEASE  -
|  1> ! r2scan-3c def2/J RI DEFGRID2 scfconv6 printgap
|  2> %output
|  3>     printlevel normal
|  4> end
|  5> * xyz 0 1
|  6> C -2.4464792673 1.1098040589 0.4979480118
|  7> C -1.7174054267 -0.0918528497 -0.0293875422
|  8> C -2.3708679498 -1.1504902961 -0.4976898211
|  9> C -0.2449719009 -0.0383853215 -0.0178679399
| 10> C 0.5046200385 -1.183762211 0.2480743319
| 11> C 1.8860832519 -1.1408997962 0.2616590291
| 12> C 2.5490518158 0.0486050229 0.0084835311
| 13> C 1.8173579837 1.1946624836 -0.2528283629
| 14> C 0.4351367502 1.1539471062 -0.2601500509
| 15> H -2.4178277977 1.9196498326 -0.2298893563
| 16> H -3.4874712824 0.8667452911 0.692495783
| 17> H -1.9834429334 1.4641083614 1.4166240331
| 18> H -1.861034901 -2.0020910778 -0.9138813307
| 19> H -3.446893745 -1.1914969412 -0.5017111463
| 20> H -0.0042924294 -2.1109717176 0.4652869766
| 21> H 2.4485985972 -2.0380471509 0.4748362074
| 22> H 3.6281560253 0.0824226625 0.0184329437
| 23> H 2.3263866413 2.1265833445 -0.4506309328
| 24> H -0.1181830575 2.0553800859 -0.4739293818
| 25> *
| 26>
| 27>                          ****END OF INPUT****

CARTESIAN COORDINATES (ANGSTROEM)
---------------------------------
  C     -2.446479    1.109804    0.497948
  C     -1.717405   -0.091853   -0.029388
  C     -2.370868   -1.150490   -0.497690
  C     -0.244972   -0.038385   -0.017868
  C      0.504620   -1.183762    0.248074
  C      1.886083   -1.140900    0.261659
  C      2.549052    0.048605    0.008484
  C      1.817358    1.194662   -0.252828
  C      0.435137    1.153947   -0.260150
  H     -2.417828    1.919650   -0.229889
  H     -3.487471    0.866745    0.692496
  H     -1.983443    1.464108    1.416624
  H     -1.861035   -2.002091   -0.913881
  H     -3.446894   -1.191497   -0.501711
  H     -0.004292   -2.110972    0.465287
  H      2.448599   -2.038047    0.474836
  H      3.628156    0.082423    0.018433
  H      2.326387    2.126583   -0.450631
  H     -0.118183    2.055380   -0.473929

 Total Charge           Charge          ....    0
 Multiplicity           Mult            ....    1
 Number of Electrons    NEL             ....   64
 Basis Dimension        Dim             ....  221

ORBITAL ENERGIES
----------------

  NO   OCC          E(Eh)            E(eV)
   0   2.0000     -10.046480      -273.3786
   1   2.0000     -10.044402      -273.3221
   2   2.0000     -10.035798      -273.0880
   3   2.0000     -10.035304      -273.0745
   4   2.0000     -10.034957      -273.0651
   5   2.0000     -10.034429      -273.0507
   6   2.0000     -10.033756      -273.0324
   7   2.0000     -10.027992      -272.8755
   8   2.0000     -10.018311      -272.6121
   9   2.0000      -0.833528       -22.6814
  10   2.0000      -0.777008       -21.1435
  11   2.0000      -0.718019       -19.5383
  12   2.0000      -0.703937       -19.1551
  13   2.0000      -0.657792       -17.8994
  14   2.0000      -0.586025       -15.9465
  15   2.0000      -0.573219       -15.5981
  16   2.0000      -0.517431       -14.0800
  17   2.0000      -0.478500       -13.0206
  18   2.0000      -0.432241       -11.7619
  19   2.0000      -0.430167       -11.7054
  20   2.0000      -0.414036       -11.2665
  21   2.0000      -0.399115       -10.8605
  22   2.0000      -0.392261       -10.6740
  23   2.0000      -0.377736       -10.2787
  24   2.0000      -0.352645        -9.5959
  25   2.0000      -0.344005        -9.3609
  26   2.0000      -0.336702        -9.1621
  27   2.0000      -0.310580        -8.4513
  28   2.0000      -0.304004        -8.2724
  29   2.0000      -0.260930        -7.1003
  30   2.0000      -0.238405        -6.4873
  31   2.0000      -0.212214        -5.7746
  32   0.0000      -0.052677        -1.4334
  33   0.0000      -0.032657        -0.8886
  34   0.0000       0.013818         0.3760
  35   0.0000       0.080567         2.1923
  36   0.0000       0.110354         3.0029

MULLIKEN ATOMIC CHARGES
-----------------------
   0 C :   -0.519009
   1 C :    0.030785
   2 C :   -0.337176
   3 C :    0.227251
   4 C :   -0.227198
   5 C :   -0.154637
   6 C :   -0.148196
   7 C :   -0.165039
   8 C :   -0.210275
   9 H :    0.159249
  10 H :    0.152088
  11 H :    0.172252
  12 H :    0.143842
  13 H :    0.140997
  14 H :    0.153414
  15 H :    0.145729
  16 H :    0.146738
  17 H :    0.145448
  18 H :    0.143739
Sum of atomic charges:    0.0000000

LOEWDIN ATOMIC CHARGES
----------------------
   0 C :   -0.389087
   1 C :   -0.105892
   2 C :   -0.301520
   3 C :   -0.074182
   4 C :   -0.144844
   5 C :   -0.161316
   6 C :   -0.167613
   7 C :   -0.161102
   8 C :   -0.150342
   9 H :    0.163334
  10 H :    0.161572
  11 H :    0.165054
  12 H :    0.161797
  13 H :    0.157986
  14 H :    0.173724
  15 H :    0.167428
  16 H :    0.166770
  17 H :    0.167183
  18 H :    0.171050

  Mayer bond orders larger than 0.100000
B(  0-C ,  1-C ) :   0.8728 B(  0-C ,  9-H ) :   0.9653 B(  0-C , 10-H ) :   0.9819
B(  0-C , 11-H ) :   0.9809 B(  1-C ,  2-C ) :   1.8414 B(  1-C ,  3-C ) :   0.9097
B(  2-C , 12-H ) :   0.9730 B(  2-C , 13-H ) :   0.9646 B(  3-C ,  4-C ) :   1.4057
B(  3-C ,  8-C ) :   1.3843 B(  4-C ,  5-C ) :   1.4403 B(  4-C , 14-H ) :   0.9389
B(  5-C ,  6-C ) :   1.4164 B(  5-C , 15-H ) :   0.9487 B(  6-C ,  7-C ) :   1.4197
B(  6-C , 16-H ) :   0.9480 B(  7-C ,  8-C ) :   1.4412 B(  7-C , 17-H ) :   0.9491
B(  8-C , 18-H ) :   0.9413

Dispersion correction           -0.006482735
FINAL SINGLE POINT ENERGY      -348.855941404901

DIPOLE MOMENT
-------------

Method             : SCF
Type of density    : Electron Density
Multiplicity       :   1
Irrep              :   0
Energy             :  -348.8547566074037150 Eh
Relativity type    :
Basis              : AO
                                X                 Y                 Z
Electronic contribution:      4.604822561      -0.954413458      -0.410989992
Nuclear contribution   :     -4.612040817       1.099798667       0.466864341
                        -----------------------------------------
Total Dipole Moment    :     -0.007218257       0.145385209       0.055874349
                        -----------------------------------------
Magnitude (a.u.)       :      0.155919547
Magnitude (Debye)      :      0.396315993

Rotational constants in cm-1:             0.120680             0.040394             0.031823
Rotational constants in MHz :          3617.884758          1210.975783           954.020264

                             ****ORCA TERMINATED NORMALLY****
TOTAL RUN TIME: 0 days 0 hours 0 minutes 20 seconds 45 msec
