                         Program Version 6.0.0  -   RELEASE  -
|  1> ! r2scan-3c def2/J RI DEFGRID2 scfconv6 printgap
|  2> %output
|  3>     printlevel normal
|  4> end
|  5> %cpcm
|  6>     smd true
|  7>     smdsolvent "water"
|  8> end
|  9> * xyz 0 1
| 10> C -2.4464792673 1.1098040589 0.4979480118
| 11> C -1.7174054267 -0.0918528497 -0.0293875422
| 12> C -2.3708679498 -1.1504902961 -0.4976898211
| 13> C -0.2449719009 -0.0383853215 -0.0178679399
| 14> C 0.5046200385 -1.183762211 0.2480743319
| 15> C 1.8860832519 -1.1408997962 0.2616590291
| 16> C 2.5490518158 0.0486050229 0.0084835311
| 17> C 1.8173579837 1.1946624836 -0.2528283629
| 18> C 0.4351367502 1.1539471062 -0.2601500509
| 19> H -2.4178277977 1.9196498326 -0.2298893563
| 20> H -3.4874712824 0.8667452911 0.692495783
| 21> H -1.9834429334 1.4641083614 1.4166240331
| 22> H -1.861034901 -2.0020910778 -0.9138813307
| 23> H -3.446893745 -1.1914969412 -0.5017111463
| 24> H -0.0042924294 -2.1109717176 0.4652869766
| 25> H 2.4485985972 -2.0380471509 0.4748362074
| 26> H 3.6281560253 0.0824226625 0.0184329437
| 27> H 2.3263866413 2.1265833445 -0.4506309328
| 28> H -0.1181830575 2.0553800859 -0.4739293818
| 29> *
| 30>
| 31>                          ****END OF INPUT****

CARTESIAN COORDINATES (ANGSTROEM)
---------------------------------
  C     -2.446479    1.109804    0.497948
  C     -1.717405   -0.091853   -0.029388
  C     -2.370868   -1.150490   -0.497690
  C     -0.244972   -0.038385   -0.017868
  C      0.504620   -1.183762    0.248074
  C      1.886083   -1.140900    0.261659
  C      2.549052    0.048605    0.008484
  C      1.817358    1.194662   -0.252828
  C      0.435137    1.153947   -0.260150
  H     -2.417828    1.919650   -0.229889
  H     -3.487471    0.866745    0.692496
  H     -1.983443    1.464108    1.416624
  H     -1.861035   -2.002091   -0.913881
  H     -3.446894   -1.191497   -0.501711
  H     -0.004292   -2.110972    0.465287
  H      2.448599   -2.038047    0.474836
  H      3.628156    0.082423    0.018433
  H      2.326387    2.126583   -0.450631
  H     -0.118183    2.055380   -0.473929

 Total Charge           Charge          ....    0
 Multiplicity           Mult            ....    1
 Number of Electrons    NEL             ....   64
 Basis Dimension        Dim             ....  221

ORBITAL ENERGIES
----------------

  NO   OCC          E(Eh)            E(eV)
   0   2.0000     -10.046534      -273.3801
   1   2.0000     -10.045129      -273.3419
   2   2.0000     -10.033686      -273.0305
   3   2.0000     -10.033396      -273.0226
   4   2.0000     -10.033203      -273.0173
   5   2.0000     -10.032745      -273.0049
   6   2.0000     -10.032216      -272.9905
   7   2.0000     -10.018816      -272.6258
   8   2.0000     -10.013962      -272.4938
   9   2.0000      -0.834064       -22.6960
  10   2.0000      -0.775391       -21.0995
  11   2.0000      -0.717073       -19.5126
  12   2.0000      -0.702358       -19.1121
  13   2.0000      -0.652361       -17.7517
  14   2.0000      -0.583859       -15.8876
  15   2.0000      -0.570898       -15.5349
  16   2.0000      -0.514284       -13.9944
  17   2.0000      -0.474165       -12.9027
  18   2.0000      -0.429442       -11.6857
  19   2.0000      -0.426332       -11.6011
  20   2.0000      -0.409141       -11.1333
  21   2.0000      -0.394584       -10.7372
  22   2.0000      -0.388230       -10.5643
  23   2.0000      -0.371889       -10.1196
  24   2.0000      -0.347968        -9.4687
  25   2.0000      -0.344235        -9.3671
  26   2.0000      -0.330740        -8.9999
  27   2.0000      -0.306832        -8.3493
  28   2.0000      -0.300292        -8.1714
  29   2.0000      -0.261795        -7.1238
  30   2.0000      -0.240730        -6.5506
  31   2.0000      -0.213856        -5.8193
  32   0.0000      -0.053926        -1.4674
  33   0.0000      -0.034003        -0.9253
  34   0.0000       0.013492         0.3671
  35   0.0000       0.089085         2.4241
  36   0.0000       0.116815         3.1787

MULLIKEN ATOMIC CHARGES
-----------------------
   0 C :   -0.541840
   1 C :    0.022015
   2 C :   -0.397968
   3 C :    0.185211
   4 C :   -0.236635
   5 C :   -0.199627
   6 C :   -0.176222
   7 C :   -0.204792
   8 C :   -0.221126
   9 H :    0.183056
  10 H :    0.170555
  11 H :    0.182555
  12 H :    0.168149
  13 H :    0.169929
  14 H :    0.181601
  15 H :    0.178286
  16 H :    0.179885
  17 H :    0.178152
  18 H :    0.178818
Sum of atomic charges:   -0.0000000

LOEWDIN ATOMIC CHARGES
----------------------
   0 C :   -0.394111
   1 C :   -0.111655
   2 C :   -0.318849
   3 C :   -0.087242
   4 C :   -0.154706
   5 C :   -0.171107
   6 C :   -0.177170
   7 C :   -0.170566
   8 C :   -0.157240
   9 H :    0.172568
  10 H :    0.167091
  11 H :    0.168666
  12 H :    0.168036
  13 H :    0.166357
  14 H :    0.182785
  15 H :    0.178342
  16 H :    0.177510
  17 H :    0.178218
  18 H :    0.183075

  Mayer bond orders larger than 0.100000
B(  0-C ,  1-C ) :   0.8760 B(  0-C ,  9-H ) :   0.9566 B(  0-C , 10-H ) :   0.9766
B(  0-C , 11-H ) :   0.9760 B(  1-C ,  2-C ) :   1.8209 B(  1-C ,  3-C ) :   0.8982
B(  2-C , 12-H ) :   0.9724 B(  2-C , 13-H ) :   0.9633 B(  3-C ,  4-C ) :   1.3670
B(  3-C ,  8-C ) :   1.3568 B(  4-C ,  5-C ) :   1.4207 B(  4-C , 14-H ) :   0.9438
B(  5-C ,  6-C ) :   1.3802 B(  5-C , 15-H ) :   0.9571 B(  6-C ,  7-C ) :   1.3810
B(  6-C , 16-H ) :   0.9542 B(  7-C ,  8-C ) :   1.4111 B(  7-C , 17-H ) :   0.9593
B(  8-C , 18-H ) :   0.9484

Dispersion correction           -0.006482735
FINAL SINGLE POINT ENERGY      -348.857360110068

DIPOLE MOMENT
-------------

Method             : SCF
Type of density    : Electron Density
Multiplicity       :   1
Irrep              :   0
Energy             :  -348.8561753125704854 Eh
Relativity type    :
Basis              : AO
                                X                 Y                 Z
Electronic contribution:      4.604847009      -0.871820002      -0.396485681
Nuclear contribution   :     -4.612040817       1.099798667       0.466864341
                        -----------------------------------------
Total Dipole Moment    :     -0.007193809       0.227978665       0.070378660
                        -----------------------------------------
Magnitude (a.u.)       :      0.238703118
Magnitude (Debye)      :      0.606735107

Rotational constants in cm-1:             0.120680             0.040394             0.031823
Rotational constants in MHz :          3617.884758          1210.975783           954.020264

                             ****ORCA TERMINATED NORMALLY****
TOTAL RUN TIME: 0 days 0 hours 0 minutes 22 seconds 31 msec
