                         Program Version 6.0.0  -   RELEASE  -
|  1> ! pbe def2-sv(p) def2/J RI DEFGRID1 loosescf d4 GCP(DFT/SV(P)) printgap
|  2> %output
|  3>     printlevel normal
|  4> end
|  5> * xyz 0 1
|  6> C 1.6392361632 -0.5391287802 -1.0527011974
|  7> C 0.965178135 -0.4448890901 0.3165520708
|  8> H 1.7617063404 -0.4995732188 1.0682472517
|  9> C -0.0008563949 -1.6285692078 0.547597231
| 10> C -1.4760432949 -1.2336032912 0.4392591684
| 11> C -1.6840230547 -0.2622987213 -0.715943636
| 12> C -0.9334570303 1.0525225273 -0.4616962538
| 13> C 0.2225938253 0.8831335336 0.53324825
| 14> H -0.1975156605 0.8406551019 1.5445299046
| 15> C 1.1503747271 2.0954528838 0.4848125165
| 16> H 0.9142496453 -0.4750841647 -1.8581448134
| 17> H 2.3687338769 0.2563731454 -1.1788286617
| 18> H 2.1634688442 -1.4888698094 -1.1393577217
| 19> H 0.2109242248 -2.4046812613 -0.1899489125
| 20> H 0.1740256458 -2.0634412077 1.533629122
| 21> H -2.0789056621 -2.1308762663 0.2866197732
| 22> H -1.8139929377 -0.7678649888 1.3667732075
| 23> H -1.3251399832 -0.7340257625 -1.6324937975
| 24> H -2.7488549253 -0.0632328734 -0.8496380854
| 25> H -0.5475174818 1.4449134163 -1.403959
| 26> H -1.6212078403 1.8001975652 -0.0608297599
| 27> H 1.9822886814 1.9680875019 1.1740229908
| 28> H 0.6037711759 2.9922205807 0.7685711259
| 29> H 1.5482016527 2.2473303599 -0.5151537359
| 30> *
| 31>
| 32>                          ****END OF INPUT****

CARTESIAN COORDINATES (ANGSTROEM)
---------------------------------
  C      1.639236   -0.539129   -1.052701
  C      0.965178   -0.444889    0.316552
  H      1.761706   -0.499573    1.068247
  C     -0.000856   -1.628569    0.547597
  C     -1.476043   -1.233603    0.439259
  C     -1.684023   -0.262299   -0.715944
  C     -0.933457    1.052523   -0.461696
  C      0.222594    0.883134    0.533248
  H     -0.197516    0.840655    1.544530
  C      1.150375    2.095453    0.484813
  H      0.914250   -0.475084   -1.858145
  H      2.368734    0.256373   -1.178829
  H      2.163469   -1.488870   -1.139358
  H      0.210924   -2.404681   -0.189949
  H      0.174026   -2.063441    1.533629
  H     -2.078906   -2.130876    0.286620
  H     -1.813993   -0.767865    1.366773
  H     -1.325140   -0.734026   -1.632494
  H     -2.748855   -0.063233   -0.849638
  H     -0.547517    1.444913   -1.403959
  H     -1.621208    1.800198   -0.060830
  H      1.982289    1.968088    1.174023
  H      0.603771    2.992221    0.768571
  H      1.548202    2.247330   -0.515154

 Total Charge           Charge          ....    0
 Multiplicity           Mult            ....    1
 Number of Electrons    NEL             ....   64
 Basis Dimension        Dim             ....  144

ORBITAL ENERGIES
----------------

  NO   OCC          E(Eh)            E(eV)
   0   2.0000      -9.885237      -268.9910
   1   2.0000      -9.885211      -268.9903
   2   2.0000      -9.875972      -268.7389
   3   2.0000      -9.875619      -268.7293
   4   2.0000      -9.874935      -268.7106
   5   2.0000      -9.874242      -268.6918
   6   2.0000      -9.868666      -268.5401
   7   2.0000      -9.867854      -268.5180
   8   2.0000      -0.756499       -20.5854
   9   2.0000      -0.683635       -18.6027
  10   2.0000      -0.672593       -18.3022
  11   2.0000      -0.619831       -16.8665
  12   2.0000      -0.581684       -15.8284
  13   2.0000      -0.531793       -14.4708
  14   2.0000      -0.519124       -14.1261
  15   2.0000      -0.451757       -12.2929
  16   2.0000      -0.437216       -11.8973
  17   2.0000      -0.414713       -11.2849
  18   2.0000      -0.398154       -10.8343
  19   2.0000      -0.369045       -10.0422
  20   2.0000      -0.362414        -9.8618
  21   2.0000      -0.359518        -9.7830
  22   2.0000      -0.339167        -9.2292
  23   2.0000      -0.327573        -8.9137
  24   2.0000      -0.314325        -8.5532
  25   2.0000      -0.308590        -8.3972
  26   2.0000      -0.298668        -8.1272
  27   2.0000      -0.295885        -8.0514
  28   2.0000      -0.291621        -7.9354
  29   2.0000      -0.253444        -6.8965
  30   2.0000      -0.251532        -6.8445
  31   2.0000      -0.244508        -6.6534
  32   0.0000       0.028107         0.7648
  33   0.0000       0.048461         1.3187
  34   0.0000       0.059066         1.6073
  35   0.0000       0.066750         1.8164
  36   0.0000       0.089665         2.4399

MULLIKEN ATOMIC CHARGES
-----------------------
   0 C :   -0.269808
   1 C :   -0.152465
   2 H :    0.059462
   3 C :   -0.110785
   4 C :   -0.150222
   5 C :   -0.141968
   6 C :   -0.143622
   7 C :   -0.135661
   8 H :    0.060021
   9 C :   -0.219865
  10 H :    0.103769
  11 H :    0.100249
  12 H :    0.100456
  13 H :    0.071070
  14 H :    0.075544
  15 H :    0.082283
  16 H :    0.074423
  17 H :    0.077483
  18 H :    0.079504
  19 H :    0.077164
  20 H :    0.075987
  21 H :    0.093255
  22 H :    0.094260
  23 H :    0.099466
Sum of atomic charges:    0.0000000

LOEWDIN ATOMIC CHARGES
----------------------
   0 C :   -0.333488
   1 C :   -0.145272
   2 H :    0.113381
   3 C :   -0.218487
   4 C :   -0.226943
   5 C :   -0.229936
   6 C :   -0.220796
   7 C :   -0.146527
   8 H :    0.114258
   9 C :   -0.327533
  10 H :    0.116416
  11 H :    0.116778
  12 H :    0.118565
  13 H :    0.114146
  14 H :    0.116378
  15 H :    0.116651
  16 H :    0.113146
  17 H :    0.112417
  18 H :    0.116319
  19 H :    0.114155
  20 H :    0.117012
  21 H :    0.116047
  22 H :    0.118087
  23 H :    0.115227

  Mayer bond orders larger than 0.100000
B(  0-C ,  1-C ) :   1.1024 B(  0-C , 10-H ) :   0.9434 B(  0-C , 11-H ) :   0.9439
B(  0-C , 12-H ) :   0.9445 B(  1-C ,  2-H ) :   0.8978 B(  1-C ,  3-C ) :   1.0677
B(  1-C ,  7-C ) :   1.1019 B(  3-C ,  4-C ) :   1.1642 B(  3-C , 13-H ) :   0.9189
B(  3-C , 14-H ) :   0.9118 B(  4-C ,  5-C ) :   1.1830 B(  4-C , 15-H ) :   0.9195
B(  4-C , 16-H ) :   0.9032 B(  5-C ,  6-C ) :   1.1365 B(  5-C , 17-H ) :   0.9054
B(  5-C , 18-H ) :   0.9186 B(  6-C ,  7-C ) :   1.1071 B(  6-C , 19-H ) :   0.9157
B(  6-C , 20-H ) :   0.9126 B(  7-C ,  8-H ) :   0.8728 B(  7-C ,  9-C ) :   1.1213
B(  9-C , 21-H ) :   0.9474 B(  9-C , 22-H ) :   0.9478 B(  9-C , 23-H ) :   0.9397

Dispersion correction           -0.023146130
FINAL SINGLE POINT ENERGY      -313.693169141260

DIPOLE MOMENT
-------------

Method             : SCF
Type of density    : Electron Density
Multiplicity       :   1
Irrep              :   0
Energy             :  -313.7735091305480069 Eh
Relativity type    :
Basis              : AO
                                X                 Y                 Z
Electronic contribution:     -1.330676529      -0.870233556       1.069403381
Nuclear contribution   :      1.308020305       0.865106519      -1.018808578
                        -----------------------------------------
Total Dipole Moment    :     -0.022656224      -0.005127038       0.050594803
                        -----------------------------------------
Magnitude (a.u.)       :      0.055672480
Magnitude (Debye)      :      0.141508199

Rotational constants in cm-1:             0.087815             0.062649             0.048590
Rotational constants in MHz :          2632.617534          1878.183429          1456.682625

                             ****ORCA TERMINATED NORMALLY****
TOTAL RUN TIME: 0 days 0 hours 0 minutes 10 seconds 500 msec
