                         Program Version 6.0.0  -   RELEASE  -
|  1> ! r2scan-3c def2/J RI DEFGRID2 scfconv6 printgap
|  2> %output
|  3>     printlevel normal
|  4> end
|  5> * xyz 0 1
|  6> C -2.3122408159 0.0052337962 -5.72498e-05
|  7> C -1.6123803296 1.2011302677 6.23266e-05
|  8> C -0.2302119232 1.1986743243 0.0001025666
|  9> C 0.457352942 -0.0085679509 -0.000254848
| 10> C -0.2384296409 -1.2095029704 -7.6041e-05
| 11> C -1.6216781543 -1.1952568873 6.4066e-06
| 12> S 2.2281848039 0.0431452646 4.21525e-05
| 13> H -3.3911188551 0.0095657125 0.0002362265
| 14> H -2.1423463679 2.1413911441 -0.0001847698
| 15> H 0.3236128917 2.1257477511 -0.0001646268
| 16> H 0.2939307703 -2.1484749254 0.0002288622
| 17> H -2.1604211267 -2.1304877238 0.0009007771
| 18> H 2.4177838631 -1.2715089901 0.0002264455
| 19> *
| 20>
| 21>                          ****END OF INPUT****

CARTESIAN COORDINATES (ANGSTROEM)
---------------------------------
  C     -2.312241    0.005234   -0.000057
  C     -1.612380    1.201130    0.000062
  C     -0.230212    1.198674    0.000103
  C      0.457353   -0.008568   -0.000255
  C     -0.238430   -1.209503   -0.000076
  C     -1.621678   -1.195257    0.000006
  S      2.228185    0.043145    0.000042
  H     -3.391119    0.009566    0.000236
  H     -2.142346    2.141391   -0.000185
  H      0.323613    2.125748   -0.000165
  H      0.293931   -2.148475    0.000229
  H     -2.160421   -2.130488    0.000901
  H      2.417784   -1.271509    0.000226

 Total Charge           Charge          ....    0
 Multiplicity           Mult            ....    1
 Number of Electrons    NEL             ....   58
 Basis Dimension        Dim             ....  171

ORBITAL ENERGIES
----------------

  NO   OCC          E(Eh)            E(eV)
   0   2.0000     -88.571916     -2410.1644
   1   2.0000     -10.079928      -274.2888
   2   2.0000     -10.044369      -273.3212
   3   2.0000     -10.042940      -273.2823
   4   2.0000     -10.042905      -273.2813
   5   2.0000     -10.042463      -273.2693
   6   2.0000     -10.036845      -273.1164
   7   2.0000      -7.867109      -214.0749
   8   2.0000      -5.814402      -158.2179
   9   2.0000      -5.810157      -158.1024
  10   2.0000      -5.804463      -157.9475
  11   2.0000      -0.841973       -22.9112
  12   2.0000      -0.761255       -20.7148
  13   2.0000      -0.726543       -19.7702
  14   2.0000      -0.677036       -18.4231
  15   2.0000      -0.587798       -15.9948
  16   2.0000      -0.566400       -15.4125
  17   2.0000      -0.494278       -13.4500
  18   2.0000      -0.444813       -12.1040
  19   2.0000      -0.431134       -11.7317
  20   2.0000      -0.402691       -10.9578
  21   2.0000      -0.396777       -10.7969
  22   2.0000      -0.363046        -9.8790
  23   2.0000      -0.350823        -9.5464
  24   2.0000      -0.323503        -8.8030
  25   2.0000      -0.310188        -8.4406
  26   2.0000      -0.281516        -7.6604
  27   2.0000      -0.246024        -6.6946
  28   2.0000      -0.202933        -5.5221
  29   0.0000      -0.040449        -1.1007
  30   0.0000      -0.035263        -0.9596
  31   0.0000      -0.003016        -0.0821
  32   0.0000       0.056357         1.5335
  33   0.0000       0.101862         2.7718

MULLIKEN ATOMIC CHARGES
-----------------------
   0 C :   -0.175644
   1 C :   -0.121698
   2 C :   -0.232743
   3 C :    0.269530
   4 C :   -0.256403
   5 C :   -0.127965
   6 S :   -0.228333
   7 H :    0.148641
   8 H :    0.148450
   9 H :    0.148390
  10 H :    0.139913
  11 H :    0.148264
  12 H :    0.139597
Sum of atomic charges:    0.0000000

LOEWDIN ATOMIC CHARGES
----------------------
   0 C :   -0.178268
   1 C :   -0.152414
   2 C :   -0.172957
   3 C :   -0.175288
   4 C :   -0.178900
   5 C :   -0.154034
   6 S :    0.026867
   7 H :    0.167758
   8 H :    0.169210
   9 H :    0.172868
  10 H :    0.167151
  11 H :    0.168885
  12 H :    0.139122

  Mayer bond orders larger than 0.100000
B(  0-C ,  1-C ) :   1.4191 B(  0-C ,  5-C ) :   1.4280 B(  0-C ,  7-H ) :   0.9483
B(  1-C ,  2-C ) :   1.4368 B(  1-C ,  8-H ) :   0.9491 B(  2-C ,  3-C ) :   1.3868
B(  2-C ,  9-H ) :   0.9486 B(  3-C ,  4-C ) :   1.3733 B(  3-C ,  6-S ) :   0.9202
B(  4-C ,  5-C ) :   1.4422 B(  4-C , 10-H ) :   0.9444 B(  5-C , 11-H ) :   0.9433
B(  6-S , 12-H ) :   0.9644

Dispersion correction           -0.004403027
FINAL SINGLE POINT ENERGY      -630.348801120674

DIPOLE MOMENT
-------------

Method             : SCF
Type of density    : Electron Density
Multiplicity       :   1
Irrep              :   0
Energy             :  -630.3501408927742204 Eh
Relativity type    :
Basis              : AO
                                X                 Y                 Z
Electronic contribution:      4.116982758       0.888454635      -0.000815573
Nuclear contribution   :     -4.434423485      -1.196252766       0.001164862
                        -----------------------------------------
Total Dipole Moment    :     -0.317440728      -0.307798131       0.000349289
                        -----------------------------------------
Magnitude (a.u.)       :      0.442163349
Magnitude (Debye)      :      1.123889916

Rotational constants in cm-1:             0.188538             0.053172             0.041475
Rotational constants in MHz :          5652.234225          1594.053333          1243.390195

                             ****ORCA TERMINATED NORMALLY****
TOTAL RUN TIME: 0 days 0 hours 0 minutes 17 seconds 343 msec
