                         Program Version 6.0.0  -   RELEASE  -
|  1> ! r2scan-3c def2/J RI DEFGRID2 scfconv6 printgap
|  2> %output
|  3>     printlevel normal
|  4> end
|  5> %cpcm
|  6>     smd true
|  7>     smdsolvent "water"
|  8> end
|  9> * xyz 0 1
| 10> C -2.3122408159 0.0052337962 -5.72498e-05
| 11> C -1.6123803296 1.2011302677 6.23266e-05
| 12> C -0.2302119232 1.1986743243 0.0001025666
| 13> C 0.457352942 -0.0085679509 -0.000254848
| 14> C -0.2384296409 -1.2095029704 -7.6041e-05
| 15> C -1.6216781543 -1.1952568873 6.4066e-06
| 16> S 2.2281848039 0.0431452646 4.21525e-05
| 17> H -3.3911188551 0.0095657125 0.0002362265
| 18> H -2.1423463679 2.1413911441 -0.0001847698
| 19> H 0.3236128917 2.1257477511 -0.0001646268
| 20> H 0.2939307703 -2.1484749254 0.0002288622
| 21> H -2.1604211267 -2.1304877238 0.0009007771
| 22> H 2.4177838631 -1.2715089901 0.0002264455
| 23> *
| 24>
| 25>                          ****END OF INPUT****

CARTESIAN COORDINATES (ANGSTROEM)
---------------------------------
  C     -2.312241    0.005234   -0.000057
  C     -1.612380    1.201130    0.000062
  C     -0.230212    1.198674    0.000103
  C      0.457353   -0.008568   -0.000255
  C     -0.238430   -1.209503   -0.000076
  C     -1.621678   -1.195257    0.000006
  S      2.228185    0.043145    0.000042
  H     -3.391119    0.009566    0.000236
  H     -2.142346    2.141391   -0.000185
  H      0.323613    2.125748   -0.000165
  H      0.293931   -2.148475    0.000229
  H     -2.160421   -2.130488    0.000901
  H      2.417784   -1.271509    0.000226

 Total Charge           Charge          ....    0
 Multiplicity           Mult            ....    1
 Number of Electrons    NEL             ....   58
 Basis Dimension        Dim             ....  171

ORBITAL ENERGIES
----------------

  NO   OCC          E(Eh)            E(eV)
   0   2.0000     -88.570190     -2410.1174
   1   2.0000     -10.078375      -274.2465
   2   2.0000     -10.039402      -273.1860
   3   2.0000     -10.039189      -273.1802
   4   2.0000     -10.038059      -273.1495
   5   2.0000     -10.037691      -273.1395
   6   2.0000     -10.032314      -272.9932
   7   2.0000      -7.865609      -214.0341
   8   2.0000      -5.812737      -158.1726
   9   2.0000      -5.808493      -158.0571
  10   2.0000      -5.803279      -157.9153
  11   2.0000      -0.840029       -22.8584
  12   2.0000      -0.758977       -20.6528
  13   2.0000      -0.722618       -19.6634
  14   2.0000      -0.674190       -18.3456
  15   2.0000      -0.582649       -15.8547
  16   2.0000      -0.561520       -15.2797
  17   2.0000      -0.488072       -13.2811
  18   2.0000      -0.439556       -11.9609
  19   2.0000      -0.424431       -11.5494
  20   2.0000      -0.396398       -10.7866
  21   2.0000      -0.390638       -10.6298
  22   2.0000      -0.363865        -9.9013
  23   2.0000      -0.346331        -9.4241
  24   2.0000      -0.316074        -8.6008
  25   2.0000      -0.306758        -8.3473
  26   2.0000      -0.282390        -7.6842
  27   2.0000      -0.245282        -6.6745
  28   2.0000      -0.203879        -5.5478
  29   0.0000      -0.038856        -1.0573
  30   0.0000      -0.034838        -0.9480
  31   0.0000       0.002059         0.0560
  32   0.0000       0.063913         1.7392
  33   0.0000       0.108610         2.9554

MULLIKEN ATOMIC CHARGES
-----------------------
   0 C :   -0.208918
   1 C :   -0.162440
   2 C :   -0.243985
   3 C :    0.206391
   4 C :   -0.259200
   5 C :   -0.161086
   6 S :   -0.273675
   7 H :    0.182214
   8 H :    0.183563
   9 H :    0.181815
  10 H :    0.181598
  11 H :    0.183686
  12 H :    0.190037
Sum of atomic charges:   -0.0000000

LOEWDIN ATOMIC CHARGES
----------------------
   0 C :   -0.187413
   1 C :   -0.161503
   2 C :   -0.183190
   3 C :   -0.191288
   4 C :   -0.181712
   5 C :   -0.161952
   6 S :    0.004162
   7 H :    0.178330
   8 H :    0.180658
   9 H :    0.183338
  10 H :    0.182313
  11 H :    0.180599
  12 H :    0.157659

  Mayer bond orders larger than 0.100000
B(  0-C ,  1-C ) :   1.3829 B(  0-C ,  5-C ) :   1.3870 B(  0-C ,  7-H ) :   0.9540
B(  1-C ,  2-C ) :   1.4144 B(  1-C ,  8-H ) :   0.9542 B(  2-C ,  3-C ) :   1.3392
B(  2-C ,  9-H ) :   0.9512 B(  3-C ,  4-C ) :   1.3487 B(  3-C ,  6-S ) :   0.9509
B(  4-C ,  5-C ) :   1.4095 B(  4-C , 10-H ) :   0.9492 B(  5-C , 11-H ) :   0.9509
B(  6-S , 12-H ) :   0.9503

Dispersion correction           -0.004403027
FINAL SINGLE POINT ENERGY      -630.353286056296

DIPOLE MOMENT
-------------

Method             : SCF
Type of density    : Electron Density
Multiplicity       :   1
Irrep              :   0
Energy             :  -630.3546258283962516 Eh
Relativity type    :
Basis              : AO
                                X                 Y                 Z
Electronic contribution:      4.017148397       0.736868922      -0.000694887
Nuclear contribution   :     -4.434423485      -1.196252766       0.001164862
                        -----------------------------------------
Total Dipole Moment    :     -0.417275089      -0.459383844       0.000469976
                        -----------------------------------------
Magnitude (a.u.)       :      0.620606346
Magnitude (Debye)      :      1.577455970

Rotational constants in cm-1:             0.188538             0.053172             0.041475
Rotational constants in MHz :          5652.234225          1594.053333          1243.390195

                             ****ORCA TERMINATED NORMALLY****
TOTAL RUN TIME: 0 days 0 hours 0 minutes 19 seconds 818 msec
