                         Program Version 6.0.0  -   RELEASE  -
|  1> ! wb97x-v def2-tzvp def2/J RIJCOSX DEFGRID2 scfconv7 GCP(DFT/TZ) printgap
|  2> %output
|  3>     printlevel normal
|  4> end
|  5> * xyz 0 1
|  6> C 3.6976895638856466 -0.2812575473778098 0.1205753586640589
|  7> C 2.2158110873780874 -0.1837223492883323 0.017742277912809766
|  8> C 1.5748356727760462 1.0067768122331267 -0.008664573129814307
|  9> C 0.13848690605705458 1.129136188880767 -0.19687403514904336
| 10> O -0.39431951164511175 2.2487850652764476 -0.23524058786236032
| 11> C -0.6587527613129571 -0.14822713292093975 -0.4201662511497935
| 12> H -0.5347384025621499 -0.35235793573501056 -1.4989517027533807
| 13> C -0.005726758455439213 -1.308066533599328 0.3388832839924726
| 14> C 1.4547016101698476 -1.4697703387883723 -0.06670994651192554
| 15> C -2.164101007138753 0.03411583597664493 -0.15415096503745238
| 16> C -2.979405326696017 -1.117436223116906 -0.7433179395954523
| 17> C -2.4753042181999287 0.21174264577442312 1.3340211663270083
| 18> H 4.181531849385052 0.6969091580445739 0.07652769689855637
| 19> H 4.088635044950933 -0.915801530028337 -0.6845742019706177
| 20> H 3.973435513570507 -0.7762306872328812 1.0605283515553716
| 21> H 2.133402991345774 1.9375181597838205 0.06321370563958785
| 22> H -0.053412307632904395 -1.1125733758868062 1.4169070743809185
| 23> H -0.5505253808170186 -2.2376693795964386 0.15032327922167968
| 24> H 1.9555654739497117 -2.2249667694903392 0.5500812341897096
| 25> H 1.5257082364493944 -1.83316336225859 -1.1042600283143245
| 26> H -2.4626858716545517 0.9522679791255226 -0.6737404509634817
| 27> H -2.7570461040315495 -2.0667421171462546 -0.243433912165859
| 28> H -2.7771947134529835 -1.2419373237577038 -1.8129289142127354
| 29> H -4.051144826039203 -0.926609120827174 -0.6220241339153787
| 30> H -1.8564138615541665 0.9926165080561989 1.7890822047871766
| 31> H -2.3089367430728323 -0.7187518603237679 1.8878554331870585
| 32> H -3.524916453237214 0.49233195727896634 1.471909603677855
| 33> *
| 34>
| 35>                          ****END OF INPUT****

CARTESIAN COORDINATES (ANGSTROEM)
---------------------------------
  C      3.697690   -0.281258    0.120575
  C      2.215811   -0.183722    0.017742
  C      1.574836    1.006777   -0.008665
  C      0.138487    1.129136   -0.196874
  O     -0.394320    2.248785   -0.235241
  C     -0.658753   -0.148227   -0.420166
  H     -0.534738   -0.352358   -1.498952
  C     -0.005727   -1.308067    0.338883
  C      1.454702   -1.469770   -0.066710
  C     -2.164101    0.034116   -0.154151
  C     -2.979405   -1.117436   -0.743318
  C     -2.475304    0.211743    1.334021
  H      4.181532    0.696909    0.076528
  H      4.088635   -0.915802   -0.684574
  H      3.973436   -0.776231    1.060528
  H      2.133403    1.937518    0.063214
  H     -0.053412   -1.112573    1.416907
  H     -0.550525   -2.237669    0.150323
  H      1.955565   -2.224967    0.550081
  H      1.525708   -1.833163   -1.104260
  H     -2.462686    0.952268   -0.673740
  H     -2.757046   -2.066742   -0.243434
  H     -2.777195   -1.241937   -1.812929
  H     -4.051145   -0.926609   -0.622024
  H     -1.856414    0.992617    1.789082
  H     -2.308937   -0.718752    1.887855
  H     -3.524916    0.492332    1.471910

 Total Charge           Charge          ....    0
 Multiplicity           Mult            ....    1
 Number of Electrons    NEL             ....   84
 Basis Dimension        Dim             ....  437

ORBITAL ENERGIES
----------------

  NO   OCC          E(Eh)            E(eV)
   0   2.0000     -21.645141      -588.9942
   1   2.0000     -12.125935      -329.9635
   2   2.0000     -12.085624      -328.8666
   3   2.0000     -12.063735      -328.2709
   4   2.0000     -12.058087      -328.1172
   5   2.0000     -12.056329      -328.0694
   6   2.0000     -12.054649      -328.0237
   7   2.0000     -12.046036      -327.7893
   8   2.0000     -12.045892      -327.7854
   9   2.0000     -12.032915      -327.4323
  10   2.0000     -12.027572      -327.2869
  11   2.0000      -1.681603       -45.7587
  12   2.0000      -1.377086       -37.4724
  13   2.0000      -1.325353       -36.0647
  14   2.0000      -1.270914       -34.5833
  15   2.0000      -1.253915       -34.1208
  16   2.0000      -1.202378       -32.7184
  17   2.0000      -1.173072       -31.9209
  18   2.0000      -1.121930       -30.5293
  19   2.0000      -1.107165       -30.1275
  20   2.0000      -1.039202       -28.2781
  21   2.0000      -1.016891       -27.6710
  22   2.0000      -0.961211       -26.1559
  23   2.0000      -0.956549       -26.0290
  24   2.0000      -0.918098       -24.9827
  25   2.0000      -0.898848       -24.4589
  26   2.0000      -0.882886       -24.0245
  27   2.0000      -0.877779       -23.8856
  28   2.0000      -0.865885       -23.5619
  29   2.0000      -0.863044       -23.4846
  30   2.0000      -0.855945       -23.2915
  31   2.0000      -0.842919       -22.9370
  32   2.0000      -0.830388       -22.5960
  33   2.0000      -0.826180       -22.4815
  34   2.0000      -0.814565       -22.1654
  35   2.0000      -0.802941       -21.8491
  36   2.0000      -0.797628       -21.7046
  37   2.0000      -0.778978       -21.1971
  38   2.0000      -0.767206       -20.8767
  39   2.0000      -0.759204       -20.6590
  40   2.0000      -0.748952       -20.3800
  41   2.0000      -0.668762       -18.1979
  42   0.0000      -0.332549        -9.0491
  43   0.0000      -0.170975        -4.6525
  44   0.0000      -0.067907        -1.8478
  45   0.0000      -0.057177        -1.5559
  46   0.0000      -0.051890        -1.4120

MULLIKEN ATOMIC CHARGES
-----------------------
   0 C :   -0.354162
   1 C :    0.096820
   2 C :   -0.281091
   3 C :    0.172305
   4 O :   -0.339757
   5 C :    0.009105
   6 H :    0.087363
   7 C :   -0.253525
   8 C :   -0.159806
   9 C :    0.048512
  10 C :   -0.358694
  11 C :   -0.412202
  12 H :    0.128047
  13 H :    0.125327
  14 H :    0.129149
  15 H :    0.119554
  16 H :    0.123042
  17 H :    0.111184
  18 H :    0.120652
  19 H :    0.113967
  20 H :    0.092733
  21 H :    0.099790
  22 H :    0.110373
  23 H :    0.117599
  24 H :    0.133799
  25 H :    0.104962
  26 H :    0.114953
Sum of atomic charges:   -0.0000000

LOEWDIN ATOMIC CHARGES
----------------------
   0 C :   -0.247548
   1 C :   -0.151206
   2 C :   -0.118222
   3 C :   -0.279732
   4 O :    0.088561
   5 C :   -0.194039
   6 H :    0.171386
   7 C :   -0.213908
   8 C :   -0.211749
   9 C :   -0.278790
  10 C :   -0.280618
  11 C :   -0.276902
  12 H :    0.128496
  13 H :    0.132659
  14 H :    0.132919
  15 H :    0.150313
  16 H :    0.144659
  17 H :    0.137040
  18 H :    0.144612
  19 H :    0.151265
  20 H :    0.158648
  21 H :    0.114167
  22 H :    0.117621
  23 H :    0.120582
  24 H :    0.124379
  25 H :    0.115314
  26 H :    0.120094

  Mayer bond orders larger than 0.100000
B(  0-C ,  1-C ) :   0.9478 B(  0-C , 12-H ) :   0.9917 B(  0-C , 13-H ) :   0.9673
B(  0-C , 14-H ) :   0.9672 B(  1-C ,  2-C ) :   1.7423 B(  1-C ,  8-C ) :   0.9761
B(  2-C ,  3-C ) :   1.1340 B(  2-C , 15-H ) :   0.9620 B(  3-C ,  4-O ) :   2.0589
B(  3-C ,  5-C ) :   0.9265 B(  5-C ,  6-H ) :   0.9326 B(  5-C ,  7-C ) :   0.9230
B(  5-C ,  9-C ) :   0.9602 B(  7-C ,  8-C ) :   1.0190 B(  7-C , 16-H ) :   0.9689
B(  7-C , 17-H ) :   0.9801 B(  8-C , 18-H ) :   0.9791 B(  8-C , 19-H ) :   0.9421
B(  9-C , 10-C ) :   0.9555 B(  9-C , 11-C ) :   0.9533 B(  9-C , 20-H ) :   0.9639
B( 10-C , 21-H ) :   0.9737 B( 10-C , 22-H ) :   0.9857 B( 10-C , 23-H ) :   0.9883
B( 11-C , 24-H ) :   0.9825 B( 11-C , 25-H ) :   0.9748 B( 11-C , 26-H ) :   0.9819

FINAL SINGLE POINT ENERGY      -465.952814427596

DIPOLE MOMENT
-------------

Method             : SCF
Type of density    : Electron Density
Multiplicity       :   1
Irrep              :   0
Energy             :  -465.9710014285964803 Eh
Relativity type    :
Basis              : AO
                                X                 Y                 Z
Electronic contribution:      3.697577471       7.392796278      -1.626912738
Nuclear contribution   :     -2.861230591      -8.825892942       1.637471316
                        -----------------------------------------
Total Dipole Moment    :      0.836346880      -1.433096664       0.010558578
                        -----------------------------------------
Magnitude (a.u.)       :      1.659323246
Magnitude (Debye)      :      4.217664509

Rotational constants in cm-1:             0.065841             0.024148             0.019926
Rotational constants in MHz :          1973.873210           723.949027           597.351672

                             ****ORCA TERMINATED NORMALLY****
TOTAL RUN TIME: 0 days 0 hours 6 minutes 22 seconds 305 msec
