                         Program Version 6.0.0  -   RELEASE  -
|  1> ! wb97x-v def2-tzvp def2/J RIJCOSX DEFGRID2 scfconv7 GCP(DFT/TZ) printgap
|  2> %output
|  3>     printlevel normal
|  4> end
|  5> %cpcm
|  6>     smd true
|  7>     smdsolvent "water"
|  8> end
|  9> * xyz 0 1
| 10> C 3.6976895638856466 -0.2812575473778098 0.1205753586640589
| 11> C 2.2158110873780874 -0.1837223492883323 0.017742277912809766
| 12> C 1.5748356727760462 1.0067768122331267 -0.008664573129814307
| 13> C 0.13848690605705458 1.129136188880767 -0.19687403514904336
| 14> O -0.39431951164511175 2.2487850652764476 -0.23524058786236032
| 15> C -0.6587527613129571 -0.14822713292093975 -0.4201662511497935
| 16> H -0.5347384025621499 -0.35235793573501056 -1.4989517027533807
| 17> C -0.005726758455439213 -1.308066533599328 0.3388832839924726
| 18> C 1.4547016101698476 -1.4697703387883723 -0.06670994651192554
| 19> C -2.164101007138753 0.03411583597664493 -0.15415096503745238
| 20> C -2.979405326696017 -1.117436223116906 -0.7433179395954523
| 21> C -2.4753042181999287 0.21174264577442312 1.3340211663270083
| 22> H 4.181531849385052 0.6969091580445739 0.07652769689855637
| 23> H 4.088635044950933 -0.915801530028337 -0.6845742019706177
| 24> H 3.973435513570507 -0.7762306872328812 1.0605283515553716
| 25> H 2.133402991345774 1.9375181597838205 0.06321370563958785
| 26> H -0.053412307632904395 -1.1125733758868062 1.4169070743809185
| 27> H -0.5505253808170186 -2.2376693795964386 0.15032327922167968
| 28> H 1.9555654739497117 -2.2249667694903392 0.5500812341897096
| 29> H 1.5257082364493944 -1.83316336225859 -1.1042600283143245
| 30> H -2.4626858716545517 0.9522679791255226 -0.6737404509634817
| 31> H -2.7570461040315495 -2.0667421171462546 -0.243433912165859
| 32> H -2.7771947134529835 -1.2419373237577038 -1.8129289142127354
| 33> H -4.051144826039203 -0.926609120827174 -0.6220241339153787
| 34> H -1.8564138615541665 0.9926165080561989 1.7890822047871766
| 35> H -2.3089367430728323 -0.7187518603237679 1.8878554331870585
| 36> H -3.524916453237214 0.49233195727896634 1.471909603677855
| 37> *
| 38>
| 39>                          ****END OF INPUT****

CARTESIAN COORDINATES (ANGSTROEM)
---------------------------------
  C      3.697690   -0.281258    0.120575
  C      2.215811   -0.183722    0.017742
  C      1.574836    1.006777   -0.008665
  C      0.138487    1.129136   -0.196874
  O     -0.394320    2.248785   -0.235241
  C     -0.658753   -0.148227   -0.420166
  H     -0.534738   -0.352358   -1.498952
  C     -0.005727   -1.308067    0.338883
  C      1.454702   -1.469770   -0.066710
  C     -2.164101    0.034116   -0.154151
  C     -2.979405   -1.117436   -0.743318
  C     -2.475304    0.211743    1.334021
  H      4.181532    0.696909    0.076528
  H      4.088635   -0.915802   -0.684574
  H      3.973436   -0.776231    1.060528
  H      2.133403    1.937518    0.063214
  H     -0.053412   -1.112573    1.416907
  H     -0.550525   -2.237669    0.150323
  H      1.955565   -2.224967    0.550081
  H      1.525708   -1.833163   -1.104260
  H     -2.462686    0.952268   -0.673740
  H     -2.757046   -2.066742   -0.243434
  H     -2.777195   -1.241937   -1.812929
  H     -4.051145   -0.926609   -0.622024
  H     -1.856414    0.992617    1.789082
  H     -2.308937   -0.718752    1.887855
  H     -3.524916    0.492332    1.471910

 Total Charge           Charge          ....    0
 Multiplicity           Mult            ....    1
 Number of Electrons    NEL             ....   84
 Basis Dimension        Dim             ....  437

ORBITAL ENERGIES
----------------

  NO   OCC          E(Eh)            E(eV)
   0   2.0000     -21.658217      -589.3501
   1   2.0000     -12.135688      -330.2289
   2   2.0000     -12.081781      -328.7620
   3   2.0000     -12.048673      -327.8611
   4   2.0000     -12.045046      -327.7624
   5   2.0000     -12.042262      -327.6866
   6   2.0000     -12.039129      -327.6014
   7   2.0000     -12.038707      -327.5899
   8   2.0000     -12.037998      -327.5706
   9   2.0000     -12.023663      -327.1805
  10   2.0000     -12.022984      -327.1620
  11   2.0000      -1.698850       -46.2281
  12   2.0000      -1.367952       -37.2239
  13   2.0000      -1.318116       -35.8678
  14   2.0000      -1.259545       -34.2740
  15   2.0000      -1.247853       -33.9558
  16   2.0000      -1.190078       -32.3837
  17   2.0000      -1.167104       -31.7585
  18   2.0000      -1.114935       -30.3389
  19   2.0000      -1.105759       -30.0892
  20   2.0000      -1.035562       -28.1791
  21   2.0000      -1.024569       -27.8799
  22   2.0000      -0.958626       -26.0855
  23   2.0000      -0.948623       -25.8134
  24   2.0000      -0.914021       -24.8718
  25   2.0000      -0.901405       -24.5285
  26   2.0000      -0.879254       -23.9257
  27   2.0000      -0.872464       -23.7409
  28   2.0000      -0.857544       -23.3349
  29   2.0000      -0.854094       -23.2411
  30   2.0000      -0.849839       -23.1253
  31   2.0000      -0.828679       -22.5495
  32   2.0000      -0.818251       -22.2657
  33   2.0000      -0.812698       -22.1146
  34   2.0000      -0.802487       -21.8368
  35   2.0000      -0.794450       -21.6181
  36   2.0000      -0.788247       -21.4493
  37   2.0000      -0.771651       -20.9977
  38   2.0000      -0.760635       -20.6979
  39   2.0000      -0.751906       -20.4604
  40   2.0000      -0.742968       -20.2172
  41   2.0000      -0.663304       -18.0494
  42   0.0000      -0.329600        -8.9689
  43   0.0000      -0.166135        -4.5208
  44   0.0000      -0.063995        -1.7414
  45   0.0000      -0.050217        -1.3665
  46   0.0000      -0.037997        -1.0340

MULLIKEN ATOMIC CHARGES
-----------------------
   0 C :   -0.394228
   1 C :    0.097569
   2 C :   -0.357957
   3 C :    0.284889
   4 O :   -0.495632
   5 C :    0.009561
   6 H :    0.120208
   7 C :   -0.276980
   8 C :   -0.162575
   9 C :    0.052569
  10 C :   -0.422120
  11 C :   -0.448947
  12 H :    0.145463
  13 H :    0.151618
  14 H :    0.154129
  15 H :    0.145556
  16 H :    0.134015
  17 H :    0.132354
  18 H :    0.144014
  19 H :    0.136128
  20 H :    0.073120
  21 H :    0.124648
  22 H :    0.128904
  23 H :    0.131952
  24 H :    0.129388
  25 H :    0.129444
  26 H :    0.132909
Sum of atomic charges:   -0.0000000

LOEWDIN ATOMIC CHARGES
----------------------
   0 C :   -0.243140
   1 C :   -0.128254
   2 C :   -0.139061
   3 C :   -0.270074
   4 O :   -0.003306
   5 C :   -0.189473
   6 H :    0.182646
   7 C :   -0.209685
   8 C :   -0.202115
   9 C :   -0.282054
  10 C :   -0.283798
  11 C :   -0.284146
  12 H :    0.132096
  13 H :    0.141534
  14 H :    0.141884
  15 H :    0.153090
  16 H :    0.147291
  17 H :    0.143275
  18 H :    0.153244
  19 H :    0.161012
  20 H :    0.150979
  21 H :    0.120058
  22 H :    0.121541
  23 H :    0.121895
  24 H :    0.121131
  25 H :    0.121707
  26 H :    0.121721

  Mayer bond orders larger than 0.100000
B(  0-C ,  1-C ) :   0.9520 B(  0-C , 12-H ) :   0.9864 B(  0-C , 13-H ) :   0.9599
B(  0-C , 14-H ) :   0.9566 B(  1-C ,  2-C ) :   1.7363 B(  1-C ,  8-C ) :   0.9935
B(  2-C ,  3-C ) :   1.1429 B(  2-C , 15-H ) :   0.9548 B(  3-C ,  4-O ) :   1.8831
B(  3-C ,  5-C ) :   0.9372 B(  5-C ,  6-H ) :   0.9206 B(  5-C ,  7-C ) :   0.9257
B(  5-C ,  9-C ) :   0.9524 B(  7-C ,  8-C ) :   1.0131 B(  7-C , 16-H ) :   0.9683
B(  7-C , 17-H ) :   0.9740 B(  8-C , 18-H ) :   0.9698 B(  8-C , 19-H ) :   0.9318
B(  9-C , 10-C ) :   0.9618 B(  9-C , 11-C ) :   0.9481 B(  9-C , 20-H ) :   0.9661
B( 10-C , 21-H ) :   0.9737 B( 10-C , 22-H ) :   0.9822 B( 10-C , 23-H ) :   0.9850
B( 11-C , 24-H ) :   0.9807 B( 11-C , 25-H ) :   0.9727 B( 11-C , 26-H ) :   0.9803

FINAL SINGLE POINT ENERGY      -465.961938625045

DIPOLE MOMENT
-------------

Method             : SCF
Type of density    : Electron Density
Multiplicity       :   1
Irrep              :   0
Energy             :  -465.9801256260448099 Eh
Relativity type    :
Basis              : AO
                                X                 Y                 Z
Electronic contribution:      4.174992526       6.468404630      -1.645745347
Nuclear contribution   :     -2.861230591      -8.825892942       1.637471316
                        -----------------------------------------
Total Dipole Moment    :      1.313761935      -2.357488312      -0.008274031
                        -----------------------------------------
Magnitude (a.u.)       :      2.698849759
Magnitude (Debye)      :      6.859930920

Rotational constants in cm-1:             0.065841             0.024148             0.019926
Rotational constants in MHz :          1973.873210           723.949027           597.351672

                             ****ORCA TERMINATED NORMALLY****
TOTAL RUN TIME: 0 days 0 hours 6 minutes 16 seconds 235 msec
