                         Program Version 6.0.0  -   RELEASE  -
|  1> ! r2scan-3c def2/J RI DEFGRID2 scfconv6 printgap
|  2> %output
|  3>     printlevel normal
|  4> end
|  5> %cpcm
|  6>     smd true
|  7>     smdsolvent "water"
|  8> end
|  9> * xyz 0 1
| 10> C -1.9391325213 0.4343667288 -0.2071299154
| 11> C -0.8915644552 -0.5544159973 0.2976538174
| 12> C 0.5466488321 -0.1545489744 0.0282641805
| 13> O 1.3979062998 -0.9842279996 -0.287269121
| 14> N 0.845492677 1.1399777281 0.1784534759
| 15> H -1.943732098 1.3504086984 0.3770394227
| 16> H -1.7613231461 0.6797792418 -1.2510948673
| 17> H -2.925450462 -0.014805868 -0.1259650193
| 18> H -1.0371252482 -1.5313127404 -0.16610897
| 19> H -0.9923707837 -0.6878171017 1.3775006032
| 20> H 0.1462799786 1.81388423 0.4356176726
| 21> H 1.7919626891 1.4434751435 0.0175917159
| 22> *
| 23>
| 24>                          ****END OF INPUT****

CARTESIAN COORDINATES (ANGSTROEM)
---------------------------------
  C     -1.939133    0.434367   -0.207130
  C     -0.891564   -0.554416    0.297654
  C      0.546649   -0.154549    0.028264
  O      1.397906   -0.984228   -0.287269
  N      0.845493    1.139978    0.178453
  H     -1.943732    1.350409    0.377039
  H     -1.761323    0.679779   -1.251095
  H     -2.925450   -0.014806   -0.125965
  H     -1.037125   -1.531313   -0.166109
  H     -0.992371   -0.687817    1.377501
  H      0.146280    1.813884    0.435618
  H      1.791963    1.443475    0.017592

 Total Charge           Charge          ....    0
 Multiplicity           Mult            ....    1
 Number of Electrons    NEL             ....   40
 Basis Dimension        Dim             ....  140

ORBITAL ENERGIES
----------------

  NO   OCC          E(Eh)            E(eV)
   0   2.0000     -18.922378      -514.9041
   1   2.0000     -14.177370      -385.7859
   2   2.0000     -10.134377      -275.7704
   3   2.0000     -10.033021      -273.0124
   4   2.0000     -10.019056      -272.6324
   5   2.0000      -1.006782       -27.3959
   6   2.0000      -0.874193       -23.7880
   7   2.0000      -0.738311       -20.0905
   8   2.0000      -0.617353       -16.7990
   9   2.0000      -0.549623       -14.9560
  10   2.0000      -0.504901       -13.7391
  11   2.0000      -0.442243       -12.0340
  12   2.0000      -0.419432       -11.4133
  13   2.0000      -0.392299       -10.6750
  14   2.0000      -0.376416       -10.2428
  15   2.0000      -0.346731        -9.4350
  16   2.0000      -0.327450        -8.9104
  17   2.0000      -0.311605        -8.4792
  18   2.0000      -0.251219        -6.8360
  19   2.0000      -0.231085        -6.2881
  20   0.0000      -0.004913        -0.1337
  21   0.0000       0.080161         2.1813
  22   0.0000       0.125206         3.4070
  23   0.0000       0.143695         3.9101
  24   0.0000       0.147987         4.0269

MULLIKEN ATOMIC CHARGES
-----------------------
   0 C :   -0.501605
   1 C :   -0.303933
   2 C :    0.311227
   3 O :   -0.547490
   4 N :   -0.420486
   5 H :    0.158169
   6 H :    0.171221
   7 H :    0.166381
   8 H :    0.167302
   9 H :    0.192486
  10 H :    0.309747
  11 H :    0.296981
Sum of atomic charges:    0.0000000

LOEWDIN ATOMIC CHARGES
----------------------
   0 C :   -0.410449
   1 C :   -0.251393
   2 C :    0.299958
   3 O :   -0.569739
   4 N :   -0.463897
   5 H :    0.156801
   6 H :    0.160536
   7 H :    0.160340
   8 H :    0.178100
   9 H :    0.186732
  10 H :    0.277550
  11 H :    0.275461

  Mayer bond orders larger than 0.100000
B(  0-C ,  1-C ) :   0.8793 B(  0-C ,  5-H ) :   0.9663 B(  0-C ,  6-H ) :   0.9800
B(  0-C ,  7-H ) :   0.9624 B(  1-C ,  2-C ) :   0.9946 B(  1-C ,  8-H ) :   0.9700
B(  1-C ,  9-H ) :   0.9161 B(  2-C ,  3-O ) :   1.8379 B(  2-C ,  4-N ) :   1.1860
B(  4-N , 10-H ) :   0.8899 B(  4-N , 11-H ) :   0.8935

Dispersion correction           -0.002479347
FINAL SINGLE POINT ENERGY      -248.487100143720

DIPOLE MOMENT
-------------

Method             : SCF
Type of density    : Electron Density
Multiplicity       :   1
Irrep              :   0
Energy             :  -248.4930407873536353 Eh
Relativity type    :
Basis              : AO
                                X                 Y                 Z
Electronic contribution:      5.030284219      -1.009177249      -0.054775117
Nuclear contribution   :     -6.280747294       2.856471634       0.620206347
                        -----------------------------------------
Total Dipole Moment    :     -1.250463075       1.847294385       0.565431229
                        -----------------------------------------
Magnitude (a.u.)       :      2.301275064
Magnitude (Debye)      :      5.849376355

Rotational constants in cm-1:             0.303382             0.130185             0.098376
Rotational constants in MHz :          9095.173060          3902.857697          2949.225591

                             ****ORCA TERMINATED NORMALLY****
TOTAL RUN TIME: 0 days 0 hours 0 minutes 12 seconds 500 msec
