                         Program Version 6.0.0  -   RELEASE  -
|  1> ! pbe def2-sv(p) def2/J RI DEFGRID1 loosescf d4 GCP(DFT/SV(P)) printgap
|  2> %output
|  3>     printlevel normal
|  4> end
|  5> * xyz 0 1
|  6> C -2.5084724719 0.9970914581 0.0275857628
|  7> C -1.7016751627 -0.2105454317 0.4949903015
|  8> C -0.5878234864 -0.6065203386 -0.4871074617
|  9> C 0.8369939202 -0.169192641 -0.094833159
| 10> C 1.7797528414 -0.5698073023 -1.2367386929
| 11> C 0.9146543219 1.3498268415 0.0785460633
| 12> C 1.2797873048 -0.8729978023 1.2047968153
| 13> H -1.8727930035 1.868656279 -0.0987720306
| 14> H -2.9909797307 0.7845533376 -0.9241916244
| 15> H -3.2813867401 1.2390898023 0.7542036473
| 16> H -1.2770571778 -0.0006532839 1.4773467598
| 17> H -2.3886947232 -1.0513430054 0.6153280995
| 18> H -0.8221074131 -0.1898524545 -1.4691026883
| 19> H -0.5749976786 -1.6934557349 -0.596635166
| 20> H 1.7398627285 -1.6433995858 -1.4081839956
| 21> H 1.5001070051 -0.0663478837 -2.1598635189
| 22> H 2.8048267258 -0.2962725915 -0.9967509053
| 23> H 0.5810505094 1.8544625796 -0.8257008669
| 24> H 1.941962714 1.6498179828 0.2756233518
| 25> H 0.2990100532 1.6816164046 0.9100252777
| 26> H 2.135903878 -1.5176336194 1.0227823899
| 27> H 1.5647933052 -0.150176135 1.9649502226
| 28> H 0.4829912671 -1.4901493114 1.6110045561
| 29> *
| 30>
| 31>                          ****END OF INPUT****

CARTESIAN COORDINATES (ANGSTROEM)
---------------------------------
  C     -2.508472    0.997091    0.027586
  C     -1.701675   -0.210545    0.494990
  C     -0.587823   -0.606520   -0.487107
  C      0.836994   -0.169193   -0.094833
  C      1.779753   -0.569807   -1.236739
  C      0.914654    1.349827    0.078546
  C      1.279787   -0.872998    1.204797
  H     -1.872793    1.868656   -0.098772
  H     -2.990980    0.784553   -0.924192
  H     -3.281387    1.239090    0.754204
  H     -1.277057   -0.000653    1.477347
  H     -2.388695   -1.051343    0.615328
  H     -0.822107   -0.189852   -1.469103
  H     -0.574998   -1.693456   -0.596635
  H      1.739863   -1.643400   -1.408184
  H      1.500107   -0.066348   -2.159864
  H      2.804827   -0.296273   -0.996751
  H      0.581051    1.854463   -0.825701
  H      1.941963    1.649818    0.275623
  H      0.299010    1.681616    0.910025
  H      2.135904   -1.517634    1.022782
  H      1.564793   -0.150176    1.964950
  H      0.482991   -1.490149    1.611005

 Total Charge           Charge          ....    0
 Multiplicity           Mult            ....    1
 Number of Electrons    NEL             ....   58
 Basis Dimension        Dim             ....  130

ORBITAL ENERGIES
----------------

  NO   OCC          E(Eh)            E(eV)
   0   2.0000      -9.901904      -269.4445
   1   2.0000      -9.878610      -268.8107
   2   2.0000      -9.875245      -268.7191
   3   2.0000      -9.868803      -268.5438
   4   2.0000      -9.868304      -268.5302
   5   2.0000      -9.867210      -268.5004
   6   2.0000      -9.867196      -268.5000
   7   2.0000      -0.744349       -20.2548
   8   2.0000      -0.685480       -18.6529
   9   2.0000      -0.610894       -16.6233
  10   2.0000      -0.608989       -16.5714
  11   2.0000      -0.599842       -16.3225
  12   2.0000      -0.523135       -14.2352
  13   2.0000      -0.466410       -12.6917
  14   2.0000      -0.417398       -11.3580
  15   2.0000      -0.406837       -11.0706
  16   2.0000      -0.391711       -10.6590
  17   2.0000      -0.377292       -10.2666
  18   2.0000      -0.363787        -9.8991
  19   2.0000      -0.359571        -9.7844
  20   2.0000      -0.335696        -9.1347
  21   2.0000      -0.327502        -8.9118
  22   2.0000      -0.314101        -8.5471
  23   2.0000      -0.307870        -8.3776
  24   2.0000      -0.297652        -8.0995
  25   2.0000      -0.290114        -7.8944
  26   2.0000      -0.273155        -7.4329
  27   2.0000      -0.265729        -7.2308
  28   2.0000      -0.259577        -7.0634
  29   0.0000       0.031621         0.8604
  30   0.0000       0.060980         1.6594
  31   0.0000       0.069520         1.8917
  32   0.0000       0.072419         1.9706
  33   0.0000       0.087853         2.3906

MULLIKEN ATOMIC CHARGES
-----------------------
   0 C :   -0.292272
   1 C :   -0.167645
   2 C :   -0.113549
   3 C :   -0.263272
   4 C :   -0.210120
   5 C :   -0.225390
   6 C :   -0.214680
   7 H :    0.104470
   8 H :    0.100413
   9 H :    0.098818
  10 H :    0.091751
  11 H :    0.080397
  12 H :    0.072495
  13 H :    0.074470
  14 H :    0.094314
  15 H :    0.089586
  16 H :    0.094687
  17 H :    0.094821
  18 H :    0.094885
  19 H :    0.107274
  20 H :    0.092910
  21 H :    0.092315
  22 H :    0.103323
Sum of atomic charges:    0.0000000

LOEWDIN ATOMIC CHARGES
----------------------
   0 C :   -0.341509
   1 C :   -0.237851
   2 C :   -0.210030
   3 C :   -0.104063
   4 C :   -0.317941
   5 C :   -0.319745
   6 C :   -0.322829
   7 H :    0.115797
   8 H :    0.116112
   9 H :    0.117218
  10 H :    0.114606
  11 H :    0.116437
  12 H :    0.111589
  13 H :    0.112861
  14 H :    0.114322
  15 H :    0.113614
  16 H :    0.114198
  17 H :    0.114592
  18 H :    0.116054
  19 H :    0.115736
  20 H :    0.120510
  21 H :    0.119498
  22 H :    0.120826

  Mayer bond orders larger than 0.100000
B(  0-C ,  1-C ) :   1.1607 B(  0-C ,  7-H ) :   0.9489 B(  0-C ,  8-H ) :   0.9523
B(  0-C ,  9-H ) :   0.9513 B(  1-C ,  2-C ) :   1.0877 B(  1-C , 10-H ) :   0.9250
B(  1-C , 11-H ) :   0.9273 B(  2-C ,  3-C ) :   1.0725 B(  2-C , 12-H ) :   0.9232
B(  2-C , 13-H ) :   0.9184 B(  3-C ,  4-C ) :   1.0941 B(  3-C ,  5-C ) :   1.0962
B(  3-C ,  6-C ) :   1.0529 B(  4-C , 14-H ) :   0.9439 B(  4-C , 15-H ) :   0.9473
B(  4-C , 16-H ) :   0.9447 B(  5-C , 17-H ) :   0.9447 B(  5-C , 18-H ) :   0.9422
B(  5-C , 19-H ) :   0.9348 B(  6-C , 20-H ) :   0.9504 B(  6-C , 21-H ) :   0.9516
B(  6-C , 22-H ) :   0.9447

Dispersion correction           -0.019469790
FINAL SINGLE POINT ENERGY      -275.653572753186

DIPOLE MOMENT
-------------

Method             : SCF
Type of density    : Electron Density
Multiplicity       :   1
Irrep              :   0
Energy             :  -275.7307114498076999 Eh
Relativity type    :
Basis              : AO
                                X                 Y                 Z
Electronic contribution:      0.146742197      -0.949325728      -0.108086858
Nuclear contribution   :     -0.147768195       0.918378220       0.142660120
                        -----------------------------------------
Total Dipole Moment    :     -0.001025998      -0.030947507       0.034573262
                        -----------------------------------------
Magnitude (a.u.)       :      0.046412405
Magnitude (Debye)      :      0.117970958

Rotational constants in cm-1:             0.128382             0.052704             0.050997
Rotational constants in MHz :          3848.810030          1580.017651          1528.843176

                             ****ORCA TERMINATED NORMALLY****
TOTAL RUN TIME: 0 days 0 hours 0 minutes 7 seconds 980 msec
