                         Program Version 6.0.0  -   RELEASE  -
|  1> ! pbe def2-sv(p) def2/J RI DEFGRID1 loosescf d4 GCP(DFT/SV(P)) printgap
|  2> %output
|  3>     printlevel normal
|  4> end
|  5> * xyz 0 1
|  6> C -1.6666665496 -1.319093292 -0.6356305758
|  7> C -1.1466825368 -0.5024306535 0.556398615
|  8> H -1.9172362943 -0.5079131774 1.3350330476
|  9> C -0.8757431068 0.9736084455 0.1727108185
| 10> H -1.2306560804 1.1559442135 -0.8492690348
| 11> C 0.6252621778 1.2777978939 0.1986478109
| 12> H 0.927228259 1.4325773096 1.2453212894
| 13> C 1.4197720629 0.1004419398 -0.3780429557
| 14> H 1.0803825836 -0.0831759255 -1.4070627421
| 15> C 1.1661592199 -1.1632412493 0.4614344537
| 16> H 1.9455203776 -1.2297564502 1.2365715132
| 17> O -0.0346773649 -1.1174428177 1.1890671142
| 18> O 1.2214910221 -2.2626977929 -0.3980058504
| 19> O 2.7775177884 0.4633158615 -0.3659717683
| 20> O 0.8478575645 2.4397979374 -0.5559644672
| 21> O -1.499788841 1.8611270135 1.0693352676
| 22> O -2.8686568595 -0.7249968259 -1.0668644138
| 23> H -1.8340112261 -2.3489427802 -0.2981585661
| 24> H -0.9203313801 -1.3260994977 -1.4391109672
| 25> H 1.1832357626 -3.0878540956 0.1094087379
| 26> H 3.2979633037 -0.1919996364 -0.8522202983
| 27> H 1.8043583071 2.5978148635 -0.5887799833
| 28> H -2.4433090619 1.9161332772 0.8624912243
| 29> H -3.242073046 -1.2469518146 -1.7909340684
| 30> *
| 31>
| 32>                          ****END OF INPUT****

CARTESIAN COORDINATES (ANGSTROEM)
---------------------------------
  C     -1.666667   -1.319093   -0.635631
  C     -1.146683   -0.502431    0.556399
  H     -1.917236   -0.507913    1.335033
  C     -0.875743    0.973608    0.172711
  H     -1.230656    1.155944   -0.849269
  C      0.625262    1.277798    0.198648
  H      0.927228    1.432577    1.245321
  C      1.419772    0.100442   -0.378043
  H      1.080383   -0.083176   -1.407063
  C      1.166159   -1.163241    0.461434
  H      1.945520   -1.229756    1.236572
  O     -0.034677   -1.117443    1.189067
  O      1.221491   -2.262698   -0.398006
  O      2.777518    0.463316   -0.365972
  O      0.847858    2.439798   -0.555964
  O     -1.499789    1.861127    1.069335
  O     -2.868657   -0.724997   -1.066864
  H     -1.834011   -2.348943   -0.298159
  H     -0.920331   -1.326099   -1.439111
  H      1.183236   -3.087854    0.109409
  H      3.297963   -0.192000   -0.852220
  H      1.804358    2.597815   -0.588780
  H     -2.443309    1.916133    0.862491
  H     -3.242073   -1.246952   -1.790934

 Total Charge           Charge          ....    0
 Multiplicity           Mult            ....    1
 Number of Electrons    NEL             ....   96
 Basis Dimension        Dim             ....  192

ORBITAL ENERGIES
----------------

  NO   OCC          E(Eh)            E(eV)
   0   2.0000     -18.766826      -510.6713
   1   2.0000     -18.764854      -510.6176
   2   2.0000     -18.761935      -510.5382
   3   2.0000     -18.755612      -510.3661
   4   2.0000     -18.735945      -509.8310
   5   2.0000     -18.734679      -509.7965
   6   2.0000      -9.983278      -271.6588
   7   2.0000      -9.940317      -270.4898
   8   2.0000      -9.936591      -270.3884
   9   2.0000      -9.932318      -270.2721
  10   2.0000      -9.930880      -270.2330
  11   2.0000      -9.930823      -270.2314
  12   2.0000      -0.979187       -26.6450
  13   2.0000      -0.941122       -25.6092
  14   2.0000      -0.931235       -25.3402
  15   2.0000      -0.922361       -25.0987
  16   2.0000      -0.910793       -24.7839
  17   2.0000      -0.903181       -24.5768
  18   2.0000      -0.697564       -18.9817
  19   2.0000      -0.688686       -18.7401
  20   2.0000      -0.620891       -16.8953
  21   2.0000      -0.577867       -15.7246
  22   2.0000      -0.558625       -15.2010
  23   2.0000      -0.514785       -14.0080
  24   2.0000      -0.498793       -13.5728
  25   2.0000      -0.479663       -13.0523
  26   2.0000      -0.472831       -12.8664
  27   2.0000      -0.458562       -12.4781
  28   2.0000      -0.450282       -12.2528
  29   2.0000      -0.426277       -11.5996
  30   2.0000      -0.403864       -10.9897
  31   2.0000      -0.397047       -10.8042
  32   2.0000      -0.381395       -10.3783
  33   2.0000      -0.372063       -10.1243
  34   2.0000      -0.362296        -9.8586
  35   2.0000      -0.339194        -9.2299
  36   2.0000      -0.329593        -8.9687
  37   2.0000      -0.304416        -8.2836
  38   2.0000      -0.299646        -8.1538
  39   2.0000      -0.282085        -7.6759
  40   2.0000      -0.278445        -7.5769
  41   2.0000      -0.263172        -7.1613
  42   2.0000      -0.251433        -6.8418
  43   2.0000      -0.238209        -6.4820
  44   2.0000      -0.229117        -6.2346
  45   2.0000      -0.220115        -5.9896
  46   2.0000      -0.210888        -5.7385
  47   2.0000      -0.195076        -5.3083
  48   0.0000       0.017771         0.4836
  49   0.0000       0.020822         0.5666
  50   0.0000       0.028324         0.7707
  51   0.0000       0.049404         1.3443
  52   0.0000       0.057559         1.5663

MULLIKEN ATOMIC CHARGES
-----------------------
   0 C :    0.001705
   1 C :    0.044283
   2 H :    0.065142
   3 C :    0.060404
   4 H :    0.073998
   5 C :    0.083432
   6 H :    0.065576
   7 C :   -0.016863
   8 H :    0.068515
   9 C :    0.200179
  10 H :    0.060685
  11 O :   -0.304998
  12 O :   -0.399008
  13 O :   -0.419955
  14 O :   -0.414171
  15 O :   -0.410494
  16 O :   -0.439041
  17 H :    0.068273
  18 H :    0.090298
  19 H :    0.301551
  20 H :    0.309688
  21 H :    0.301225
  22 H :    0.303003
  23 H :    0.306571
Sum of atomic charges:    0.0000000

LOEWDIN ATOMIC CHARGES
----------------------
   0 C :   -0.144837
   1 C :   -0.063582
   2 H :    0.119181
   3 C :   -0.062962
   4 H :    0.111727
   5 C :   -0.058375
   6 H :    0.111857
   7 C :   -0.090741
   8 H :    0.106919
   9 C :   -0.013695
  10 H :    0.099506
  11 O :   -0.139796
  12 O :   -0.314741
  13 O :   -0.317108
  14 O :   -0.316068
  15 O :   -0.316340
  16 O :   -0.344716
  17 H :    0.096877
  18 H :    0.097880
  19 H :    0.284929
  20 H :    0.292768
  21 H :    0.283042
  22 H :    0.288026
  23 H :    0.290249

  Mayer bond orders larger than 0.100000
B(  0-C ,  1-C ) :   1.0393 B(  0-C , 16-O ) :   1.0629 B(  0-C , 17-H ) :   0.9089
B(  0-C , 18-H ) :   0.9051 B(  1-C ,  2-H ) :   0.8872 B(  1-C ,  3-C ) :   0.9806
B(  1-C , 11-O ) :   1.0336 B(  3-C ,  4-H ) :   0.8843 B(  3-C ,  5-C ) :   1.0284
B(  3-C , 15-O ) :   1.0982 B(  5-C ,  6-H ) :   0.8644 B(  5-C ,  7-C ) :   1.0144
B(  5-C , 14-O ) :   1.0935 B(  7-C ,  8-H ) :   0.8788 B(  7-C ,  9-C ) :   0.9758
B(  7-C , 13-O ) :   1.0690 B(  9-C , 10-H ) :   0.8875 B(  9-C , 11-O ) :   1.0675
B(  9-C , 12-O ) :   1.1139 B( 12-O , 19-H ) :   0.8409 B( 13-O , 20-H ) :   0.8447
B( 14-O , 21-H ) :   0.8372 B( 15-O , 22-H ) :   0.8492 B( 16-O , 23-H ) :   0.8494

Dispersion correction           -0.024458965
FINAL SINGLE POINT ENERGY      -685.690238690974

DIPOLE MOMENT
-------------

Method             : SCF
Type of density    : Electron Density
Multiplicity       :   1
Irrep              :   0
Energy             :  -685.8191975801132685 Eh
Relativity type    :
Basis              : AO
                                X                 Y                 Z
Electronic contribution:      1.381669241       1.284810458       1.580197544
Nuclear contribution   :     -1.258950574      -2.729902345      -2.287950607
                        -----------------------------------------
Total Dipole Moment    :      0.122718667      -1.445091887      -0.707753064
                        -----------------------------------------
Magnitude (a.u.)       :      1.613773476
Magnitude (Debye)      :      4.101886194

Rotational constants in cm-1:             0.036373             0.029212             0.019848
Rotational constants in MHz :          1090.440846           875.764960           595.039862

                             ****ORCA TERMINATED NORMALLY****
TOTAL RUN TIME: 0 days 0 hours 0 minutes 11 seconds 868 msec
