                         Program Version 6.0.0  -   RELEASE  -
|  1> ! pbe def2-sv(p) def2/J RI DEFGRID1 loosescf d4 GCP(DFT/SV(P)) printgap
|  2> %output
|  3>     printlevel normal
|  4> end
|  5> * xyz 0 1
|  6> C -1.7769127013 -1.017073358 -0.6846116318
|  7> C -1.0492880829 -0.4742971485 0.5593951972
|  8> H -1.7115731718 -0.5747019941 1.4290474267
|  9> C -0.7054624135 1.0163859565 0.41697452
| 10> H -1.561222787 1.511838627 -0.0539843065
| 11> C 0.5351937979 1.2455182665 -0.4679875609
| 12> H 0.8363292339 2.2962818496 -0.3135254713
| 13> C 1.6926525719 0.3436913106 0.0079668959
| 14> H 2.4885018399 0.3397564921 -0.7495857763
| 15> C 1.2467350269 -1.1199271751 0.1616754474
| 16> H 2.0068392348 -1.6323453549 0.7740299325
| 17> O 0.0762189951 -1.2730526583 0.9168159172
| 18> O 1.1631068168 -1.6782907231 -1.1107986131
| 19> O 2.1813070806 0.7596490037 1.2615064359
| 20> O 0.1909441132 1.0306363892 -1.8095135437
| 21> O -0.5333420198 1.6270569084 1.6727123283
| 22> O -3.0513157597 -0.4456905565 -0.8404151111
| 23> H -1.8430160587 -2.1088022086 -0.5963753583
| 24> H -1.2168992557 -0.760705797 -1.5850035864
| 25> H 0.9985362468 -2.6305315066 -1.0455888873
| 26> H 2.6864846781 1.5801323773 1.1619173731
| 27> H 0.9502753786 1.2138116108 -2.3813217789
| 28> H 0.2367798987 1.2217070695 2.1069440013
| 29> H -3.6181152613 -0.7108643517 -0.101595128
| 30> *
| 31>
| 32>                          ****END OF INPUT****

CARTESIAN COORDINATES (ANGSTROEM)
---------------------------------
  C     -1.776913   -1.017073   -0.684612
  C     -1.049288   -0.474297    0.559395
  H     -1.711573   -0.574702    1.429047
  C     -0.705462    1.016386    0.416975
  H     -1.561223    1.511839   -0.053984
  C      0.535194    1.245518   -0.467988
  H      0.836329    2.296282   -0.313525
  C      1.692653    0.343691    0.007967
  H      2.488502    0.339756   -0.749586
  C      1.246735   -1.119927    0.161675
  H      2.006839   -1.632345    0.774030
  O      0.076219   -1.273053    0.916816
  O      1.163107   -1.678291   -1.110799
  O      2.181307    0.759649    1.261506
  O      0.190944    1.030636   -1.809514
  O     -0.533342    1.627057    1.672712
  O     -3.051316   -0.445691   -0.840415
  H     -1.843016   -2.108802   -0.596375
  H     -1.216899   -0.760706   -1.585004
  H      0.998536   -2.630532   -1.045589
  H      2.686485    1.580132    1.161917
  H      0.950275    1.213812   -2.381322
  H      0.236780    1.221707    2.106944
  H     -3.618115   -0.710864   -0.101595

 Total Charge           Charge          ....    0
 Multiplicity           Mult            ....    1
 Number of Electrons    NEL             ....   96
 Basis Dimension        Dim             ....  192

ORBITAL ENERGIES
----------------

  NO   OCC          E(Eh)            E(eV)
   0   2.0000     -18.777142      -510.9520
   1   2.0000     -18.764911      -510.6192
   2   2.0000     -18.763706      -510.5864
   3   2.0000     -18.757508      -510.4177
   4   2.0000     -18.740411      -509.9525
   5   2.0000     -18.733497      -509.7644
   6   2.0000      -9.987842      -271.7830
   7   2.0000      -9.951980      -270.8071
   8   2.0000      -9.944092      -270.5925
   9   2.0000      -9.931974      -270.2628
  10   2.0000      -9.931159      -270.2406
  11   2.0000      -9.914143      -269.7776
  12   2.0000      -0.980877       -26.6910
  13   2.0000      -0.950442       -25.8628
  14   2.0000      -0.934614       -25.4321
  15   2.0000      -0.920945       -25.0602
  16   2.0000      -0.913340       -24.8533
  17   2.0000      -0.904667       -24.6172
  18   2.0000      -0.695038       -18.9130
  19   2.0000      -0.690638       -18.7932
  20   2.0000      -0.615112       -16.7381
  21   2.0000      -0.580973       -15.8091
  22   2.0000      -0.569782       -15.5045
  23   2.0000      -0.529807       -14.4168
  24   2.0000      -0.497047       -13.5253
  25   2.0000      -0.479756       -13.0548
  26   2.0000      -0.467868       -12.7313
  27   2.0000      -0.464322       -12.6349
  28   2.0000      -0.449067       -12.2197
  29   2.0000      -0.425709       -11.5841
  30   2.0000      -0.413178       -11.2432
  31   2.0000      -0.386261       -10.5107
  32   2.0000      -0.375120       -10.2075
  33   2.0000      -0.368853       -10.0370
  34   2.0000      -0.357377        -9.7247
  35   2.0000      -0.346781        -9.4364
  36   2.0000      -0.334817        -9.1108
  37   2.0000      -0.324936        -8.8420
  38   2.0000      -0.296187        -8.0596
  39   2.0000      -0.286497        -7.7960
  40   2.0000      -0.276704        -7.5295
  41   2.0000      -0.260744        -7.0952
  42   2.0000      -0.257185        -6.9984
  43   2.0000      -0.241560        -6.5732
  44   2.0000      -0.233737        -6.3603
  45   2.0000      -0.219560        -5.9745
  46   2.0000      -0.208913        -5.6848
  47   2.0000      -0.193908        -5.2765
  48   0.0000       0.005011         0.1364
  49   0.0000       0.013241         0.3603
  50   0.0000       0.032337         0.8799
  51   0.0000       0.034117         0.9284
  52   0.0000       0.069108         1.8805

MULLIKEN ATOMIC CHARGES
-----------------------
   0 C :    0.022996
   1 C :    0.001018
   2 H :    0.060009
   3 C :    0.084193
   4 H :    0.084663
   5 C :    0.046067
   6 H :    0.054660
   7 C :   -0.018293
   8 H :    0.065243
   9 C :    0.218313
  10 H :    0.066983
  11 O :   -0.316171
  12 O :   -0.392524
  13 O :   -0.412943
  14 O :   -0.389994
  15 O :   -0.434422
  16 O :   -0.428586
  17 H :    0.058357
  18 H :    0.119669
  19 H :    0.305863
  20 H :    0.312450
  21 H :    0.302498
  22 H :    0.296308
  23 H :    0.293645
Sum of atomic charges:    0.0000000

LOEWDIN ATOMIC CHARGES
----------------------
   0 C :   -0.151290
   1 C :   -0.075001
   2 H :    0.110145
   3 C :   -0.063126
   4 H :    0.125201
   5 C :   -0.079904
   6 H :    0.094861
   7 C :   -0.091016
   8 H :    0.104043
   9 C :   -0.000541
  10 H :    0.099915
  11 O :   -0.144203
  12 O :   -0.305676
  13 O :   -0.303886
  14 O :   -0.299831
  15 O :   -0.322606
  16 O :   -0.328866
  17 H :    0.088859
  18 H :    0.122744
  19 H :    0.288135
  20 H :    0.293688
  21 H :    0.287203
  22 H :    0.270003
  23 H :    0.281149

  Mayer bond orders larger than 0.100000
B(  0-C ,  1-C ) :   1.0297 B(  0-C , 16-O ) :   1.0440 B(  0-C , 17-H ) :   0.9135
B(  0-C , 18-H ) :   0.8927 B(  1-C ,  2-H ) :   0.8967 B(  1-C ,  3-C ) :   1.0135
B(  1-C , 11-O ) :   0.9819 B(  3-C ,  4-H ) :   0.8785 B(  3-C ,  5-C ) :   0.9834
B(  3-C , 15-O ) :   1.0499 B(  5-C ,  6-H ) :   0.9024 B(  5-C ,  7-C ) :   0.9630
B(  5-C , 14-O ) :   1.0784 B(  7-C ,  8-H ) :   0.8933 B(  7-C ,  9-C ) :   0.9882
B(  7-C , 13-O ) :   1.0412 B(  9-C , 10-H ) :   0.9015 B(  9-C , 11-O ) :   1.0764
B(  9-C , 12-O ) :   1.1349 B( 12-O , 19-H ) :   0.8366 B( 13-O , 20-H ) :   0.8402
B( 14-O , 21-H ) :   0.8408 B( 15-O , 22-H ) :   0.8218 B( 16-O , 23-H ) :   0.8523

Dispersion correction           -0.025793372
FINAL SINGLE POINT ENERGY      -685.692421209519

DIPOLE MOMENT
-------------

Method             : SCF
Type of density    : Electron Density
Multiplicity       :   1
Irrep              :   0
Energy             :  -685.8229394706214634 Eh
Relativity type    :
Basis              : AO
                                X                 Y                 Z
Electronic contribution:      0.979862643      -0.038688358       1.140070497
Nuclear contribution   :      0.237680759      -0.238391373      -1.269921641
                        -----------------------------------------
Total Dipole Moment    :      1.217543401      -0.277079730      -0.129851144
                        -----------------------------------------
Magnitude (a.u.)       :      1.255406879
Magnitude (Debye)      :      3.190990693

Rotational constants in cm-1:             0.040699             0.028521             0.024691
Rotational constants in MHz :          1220.131636           855.033791           740.228854

                             ****ORCA TERMINATED NORMALLY****
TOTAL RUN TIME: 0 days 0 hours 0 minutes 12 seconds 705 msec
