                         Program Version 6.0.0  -   RELEASE  -
|  1> ! pbe def2-sv(p) def2/J RI DEFGRID1 loosescf d4 GCP(DFT/SV(P)) printgap
|  2> %output
|  3>     printlevel normal
|  4> end
|  5> * xyz 0 1
|  6> C -2.4747811731 -0.8227270232 0.0516867353
|  7> C -1.0746006492 -0.5183923523 0.5984038947
|  8> H -1.0163576218 -0.8380579365 1.6509907994
|  9> C -0.7531777417 0.9977617268 0.5354422482
| 10> H -1.6393137857 1.5218600298 0.1580210219
| 11> C 0.4251302976 1.2531312871 -0.4222558147
| 12> H 0.7402372334 2.300713161 -0.2954090892
| 13> C 1.6218687143 0.3700629045 -0.0321985073
| 14> H 2.3319749054 0.388968858 -0.8688796841
| 15> C 1.1701210816 -1.1021080451 0.1926634756
| 16> H 1.2947189972 -1.3394363171 1.2653738047
| 17> O -0.1704862 -1.2898777323 -0.1772672096
| 18> O 1.9459539286 -2.009569333 -0.5042340751
| 19> O 2.192352142 0.9143891641 1.1344930581
| 20> O 0.1103642014 0.9799660022 -1.7616831104
| 21> O -0.5030562034 1.5379496173 1.8085966276
| 22> O -2.6611212738 -0.300458174 -1.2380260228
| 23> H -3.2234441087 -0.3523484761 0.6907406162
| 24> H -2.6204707876 -1.9096792566 0.0564460686
| 25> H 1.6495903968 -2.037095661 -1.4271517779
| 26> H 3.0660171316 0.5283943927 1.2896423697
| 27> H -0.6183041696 1.5521206597 -2.0431114778
| 28> H 0.4295675858 1.3919569212 2.0412127154
| 29> H -1.9681255225 -0.6648725681 -1.8090517718
| 30> *
| 31>
| 32>                          ****END OF INPUT****

CARTESIAN COORDINATES (ANGSTROEM)
---------------------------------
  C     -2.474781   -0.822727    0.051687
  C     -1.074601   -0.518392    0.598404
  H     -1.016358   -0.838058    1.650991
  C     -0.753178    0.997762    0.535442
  H     -1.639314    1.521860    0.158021
  C      0.425130    1.253131   -0.422256
  H      0.740237    2.300713   -0.295409
  C      1.621869    0.370063   -0.032199
  H      2.331975    0.388969   -0.868880
  C      1.170121   -1.102108    0.192663
  H      1.294719   -1.339436    1.265374
  O     -0.170486   -1.289878   -0.177267
  O      1.945954   -2.009569   -0.504234
  O      2.192352    0.914389    1.134493
  O      0.110364    0.979966   -1.761683
  O     -0.503056    1.537950    1.808597
  O     -2.661121   -0.300458   -1.238026
  H     -3.223444   -0.352348    0.690741
  H     -2.620471   -1.909679    0.056446
  H      1.649590   -2.037096   -1.427152
  H      3.066017    0.528394    1.289642
  H     -0.618304    1.552121   -2.043111
  H      0.429568    1.391957    2.041213
  H     -1.968126   -0.664873   -1.809052

 Total Charge           Charge          ....    0
 Multiplicity           Mult            ....    1
 Number of Electrons    NEL             ....   96
 Basis Dimension        Dim             ....  192

ORBITAL ENERGIES
----------------

  NO   OCC          E(Eh)            E(eV)
   0   2.0000     -18.781008      -511.0572
   1   2.0000     -18.771619      -510.8017
   2   2.0000     -18.764427      -510.6060
   3   2.0000     -18.761477      -510.5257
   4   2.0000     -18.749242      -510.1928
   5   2.0000     -18.738405      -509.8979
   6   2.0000      -9.989873      -271.8383
   7   2.0000      -9.949883      -270.7501
   8   2.0000      -9.948192      -270.7041
   9   2.0000      -9.940031      -270.4820
  10   2.0000      -9.936972      -270.3988
  11   2.0000      -9.932344      -270.2728
  12   2.0000      -0.988800       -26.9066
  13   2.0000      -0.954776       -25.9808
  14   2.0000      -0.941798       -25.6276
  15   2.0000      -0.929440       -25.2913
  16   2.0000      -0.918197       -24.9854
  17   2.0000      -0.910963       -24.7886
  18   2.0000      -0.697922       -18.9914
  19   2.0000      -0.691470       -18.8158
  20   2.0000      -0.616712       -16.7816
  21   2.0000      -0.597013       -16.2455
  22   2.0000      -0.563763       -15.3408
  23   2.0000      -0.527084       -14.3427
  24   2.0000      -0.516040       -14.0422
  25   2.0000      -0.493686       -13.4339
  26   2.0000      -0.477829       -13.0024
  27   2.0000      -0.455662       -12.3992
  28   2.0000      -0.453182       -12.3317
  29   2.0000      -0.443037       -12.0557
  30   2.0000      -0.421441       -11.4680
  31   2.0000      -0.391379       -10.6500
  32   2.0000      -0.382355       -10.4044
  33   2.0000      -0.376864       -10.2550
  34   2.0000      -0.355727        -9.6798
  35   2.0000      -0.353490        -9.6190
  36   2.0000      -0.329243        -8.9591
  37   2.0000      -0.319086        -8.6828
  38   2.0000      -0.317015        -8.6264
  39   2.0000      -0.309817        -8.4305
  40   2.0000      -0.282553        -7.6887
  41   2.0000      -0.277189        -7.5427
  42   2.0000      -0.256164        -6.9706
  43   2.0000      -0.246123        -6.6973
  44   2.0000      -0.239074        -6.5055
  45   2.0000      -0.222456        -6.0533
  46   2.0000      -0.215743        -5.8707
  47   2.0000      -0.196979        -5.3601
  48   0.0000       0.003023         0.0823
  49   0.0000       0.022622         0.6156
  50   0.0000       0.041734         1.1356
  51   0.0000       0.050893         1.3849
  52   0.0000       0.055852         1.5198

MULLIKEN ATOMIC CHARGES
-----------------------
   0 C :    0.061595
   1 C :    0.026121
   2 H :    0.059123
   3 C :    0.020549
   4 H :    0.074679
   5 C :    0.031937
   6 H :    0.080607
   7 C :    0.006574
   8 H :    0.069872
   9 C :    0.226539
  10 H :    0.041930
  11 O :   -0.305786
  12 O :   -0.390631
  13 O :   -0.425264
  14 O :   -0.417608
  15 O :   -0.428047
  16 O :   -0.445593
  17 H :    0.097686
  18 H :    0.083805
  19 H :    0.304956
  20 H :    0.319050
  21 H :    0.307823
  22 H :    0.302979
  23 H :    0.297103
Sum of atomic charges:   -0.0000000

LOEWDIN ATOMIC CHARGES
----------------------
   0 C :   -0.122067
   1 C :   -0.077655
   2 H :    0.107679
   3 C :   -0.077749
   4 H :    0.114005
   5 C :   -0.075717
   6 H :    0.107547
   7 C :   -0.089236
   8 H :    0.111795
   9 C :    0.000491
  10 H :    0.090950
  11 O :   -0.155004
  12 O :   -0.298942
  13 O :   -0.309483
  14 O :   -0.316449
  15 O :   -0.323175
  16 O :   -0.336083
  17 H :    0.119736
  18 H :    0.103533
  19 H :    0.289439
  20 H :    0.298492
  21 H :    0.288389
  22 H :    0.272563
  23 H :    0.276943

  Mayer bond orders larger than 0.100000
B(  0-C ,  1-C ) :   1.0451 B(  0-C , 16-O ) :   1.0620 B(  0-C , 17-H ) :   0.9229
B(  0-C , 18-H ) :   0.9150 B(  1-C ,  2-H ) :   0.8743 B(  1-C ,  3-C ) :   0.9408
B(  1-C , 11-O ) :   0.9932 B(  3-C ,  4-H ) :   0.8944 B(  3-C ,  5-C ) :   1.0040
B(  3-C , 15-O ) :   1.0699 B(  5-C ,  6-H ) :   0.8972 B(  5-C ,  7-C ) :   0.9989
B(  5-C , 14-O ) :   1.0580 B(  7-C ,  8-H ) :   0.8904 B(  7-C ,  9-C ) :   0.9534
B(  7-C , 13-O ) :   1.0326 B(  9-C , 10-H ) :   0.8790 B(  9-C , 11-O ) :   1.0533
B(  9-C , 12-O ) :   1.1323 B( 12-O , 19-H ) :   0.8417 B( 13-O , 20-H ) :   0.8396
B( 14-O , 21-H ) :   0.8354 B( 15-O , 22-H ) :   0.8143 B( 16-O , 23-H ) :   0.8319

Dispersion correction           -0.025286116
FINAL SINGLE POINT ENERGY      -685.691764724720

DIPOLE MOMENT
-------------

Method             : SCF
Type of density    : Electron Density
Multiplicity       :   1
Irrep              :   0
Energy             :  -685.8232379511089221 Eh
Relativity type    :
Basis              : AO
                                X                 Y                 Z
Electronic contribution:      2.216851853      -0.540577692      -0.985161531
Nuclear contribution   :     -1.463054549       0.506496708       0.654062233
                        -----------------------------------------
Total Dipole Moment    :      0.753797304      -0.034080983      -0.331099299
                        -----------------------------------------
Magnitude (a.u.)       :      0.824013735
Magnitude (Debye)      :      2.094476462

Rotational constants in cm-1:             0.040578             0.028065             0.023299
Rotational constants in MHz :          1216.512629           841.376692           698.493290

                             ****ORCA TERMINATED NORMALLY****
TOTAL RUN TIME: 0 days 0 hours 0 minutes 12 seconds 169 msec
