                         Program Version 6.0.0  -   RELEASE  -
|  1> ! wb97x-v def2-tzvp def2/J RIJCOSX DEFGRID2 scfconv7 GCP(DFT/TZ) printgap
|  2> %output
|  3>     printlevel normal
|  4> end
|  5> * xyz 0 1
|  6> C -1.5818424151611536 -0.1405520339558471 -0.511676702840741
|  7> C -0.6615396482619346 0.4833966804068327 0.5342961703284935
|  8> C 0.6947456690047961 -0.21387070581494128 0.644288024566611
|  9> N 1.5496978150503817 -0.14285116773988013 -0.5564387203155572
| 10> H -2.5533496742928476 0.363166537935534 -0.5339471303423103
| 11> H -1.1564741833794214 -0.07254862304327045 -1.5187253130885274
| 12> H -1.7583985538998228 -1.2000242261232459 -0.29285213812519745
| 13> H -1.1496438582391406 0.44775899639125394 1.5172441449629337
| 14> H -0.4977647238211407 1.5449253413725597 0.30327173062359697
| 15> H 1.2531138360123053 0.2184795603714765 1.482664526034144
| 16> H 0.5376492155030026 -1.2724707741202377 0.8866800763708725
| 17> H 1.6452793541134354 0.8374771957725458 -0.8112655252120884
| 18> H 1.0445808127548013 -0.5620504986473251 -1.3320925260122392
| 19> *
| 20>
| 21>                          ****END OF INPUT****

CARTESIAN COORDINATES (ANGSTROEM)
---------------------------------
  C     -1.581842   -0.140552   -0.511677
  C     -0.661540    0.483397    0.534296
  C      0.694746   -0.213871    0.644288
  N      1.549698   -0.142851   -0.556439
  H     -2.553350    0.363167   -0.533947
  H     -1.156474   -0.072549   -1.518725
  H     -1.758399   -1.200024   -0.292852
  H     -1.149644    0.447759    1.517244
  H     -0.497765    1.544925    0.303272
  H      1.253114    0.218480    1.482665
  H      0.537649   -1.272471    0.886680
  H      1.645279    0.837477   -0.811266
  H      1.044581   -0.562050   -1.332093

 Total Charge           Charge          ....    0
 Multiplicity           Mult            ....    1
 Number of Electrons    NEL             ....   34
 Basis Dimension        Dim             ....  178

ORBITAL ENERGIES
----------------

  NO   OCC          E(Eh)            E(eV)
   0   2.0000     -16.503166      -449.0740
   1   2.0000     -12.063755      -328.2715
   2   2.0000     -12.042290      -327.6874
   3   2.0000     -12.038312      -327.5791
   4   2.0000      -1.439930       -39.1825
   5   2.0000      -1.276931       -34.7470
   6   2.0000      -1.167486       -31.7689
   7   2.0000      -1.065430       -28.9918
   8   2.0000      -0.958785       -26.0899
   9   2.0000      -0.909228       -24.7414
  10   2.0000      -0.881781       -23.9945
  11   2.0000      -0.862334       -23.4653
  12   2.0000      -0.826762       -22.4973
  13   2.0000      -0.797726       -21.7072
  14   2.0000      -0.779857       -21.2210
  15   2.0000      -0.759552       -20.6685
  16   2.0000      -0.723856       -19.6971
  17   0.0000      -0.067347        -1.8326
  18   0.0000      -0.032708        -0.8900
  19   0.0000      -0.006621        -0.1802
  20   0.0000       0.001147         0.0312
  21   0.0000       0.006537         0.1779

MULLIKEN ATOMIC CHARGES
-----------------------
   0 C :   -0.346631
   1 C :   -0.171790
   2 C :   -0.087124
   3 N :   -0.479937
   4 H :    0.115809
   5 H :    0.090174
   6 H :    0.108033
   7 H :    0.086658
   8 H :    0.085655
   9 H :    0.103081
  10 H :    0.096993
  11 H :    0.197466
  12 H :    0.201613
Sum of atomic charges:   -0.0000000

LOEWDIN ATOMIC CHARGES
----------------------
   0 C :   -0.315026
   1 C :   -0.309504
   2 C :   -0.338777
   3 N :   -0.174657
   4 H :    0.117376
   5 H :    0.109461
   6 H :    0.117078
   7 H :    0.132401
   8 H :    0.126971
   9 H :    0.125112
  10 H :    0.125374
  11 H :    0.143347
  12 H :    0.140843

  Mayer bond orders larger than 0.100000
B(  0-C ,  1-C ) :   0.9717 B(  0-C ,  4-H ) :   0.9813 B(  0-C ,  5-H ) :   0.9810
B(  0-C ,  6-H ) :   0.9771 B(  1-C ,  2-C ) :   0.9893 B(  1-C ,  7-H ) :   0.9661
B(  1-C ,  8-H ) :   0.9751 B(  2-C ,  3-N ) :   1.0032 B(  2-C ,  9-H ) :   0.9791
B(  2-C , 10-H ) :   0.9812 B(  3-N , 11-H ) :   0.9497 B(  3-N , 12-H ) :   0.9579

FINAL SINGLE POINT ENERGY      -174.489790352332

DIPOLE MOMENT
-------------

Method             : SCF
Type of density    : Electron Density
Multiplicity       :   1
Irrep              :   0
Energy             :  -174.4989385459322193 Eh
Relativity type    :
Basis              : AO
                                X                 Y                 Z
Electronic contribution:      1.981268965      -0.025671555       0.206341061
Nuclear contribution   :     -2.527868313       0.305765049      -0.271418042
                        -----------------------------------------
Total Dipole Moment    :     -0.546599348       0.280093495      -0.065076981
                        -----------------------------------------
Magnitude (a.u.)       :      0.617623046
Magnitude (Debye)      :      1.569873023

Rotational constants in cm-1:             0.457355             0.163893             0.139418
Rotational constants in MHz :         13711.158848          4913.386988          4179.658535

                             ****ORCA TERMINATED NORMALLY****
TOTAL RUN TIME: 0 days 0 hours 0 minutes 48 seconds 209 msec
