                         Program Version 6.0.0  -   RELEASE  -
|  1> ! wb97x-v def2-tzvp def2/J RIJCOSX DEFGRID2 scfconv7 GCP(DFT/TZ) printgap
|  2> %output
|  3>     printlevel normal
|  4> end
|  5> %cpcm
|  6>     smd true
|  7>     smdsolvent "water"
|  8> end
|  9> * xyz 0 1
| 10> C -1.5818424151611536 -0.1405520339558471 -0.511676702840741
| 11> C -0.6615396482619346 0.4833966804068327 0.5342961703284935
| 12> C 0.6947456690047961 -0.21387070581494128 0.644288024566611
| 13> N 1.5496978150503817 -0.14285116773988013 -0.5564387203155572
| 14> H -2.5533496742928476 0.363166537935534 -0.5339471303423103
| 15> H -1.1564741833794214 -0.07254862304327045 -1.5187253130885274
| 16> H -1.7583985538998228 -1.2000242261232459 -0.29285213812519745
| 17> H -1.1496438582391406 0.44775899639125394 1.5172441449629337
| 18> H -0.4977647238211407 1.5449253413725597 0.30327173062359697
| 19> H 1.2531138360123053 0.2184795603714765 1.482664526034144
| 20> H 0.5376492155030026 -1.2724707741202377 0.8866800763708725
| 21> H 1.6452793541134354 0.8374771957725458 -0.8112655252120884
| 22> H 1.0445808127548013 -0.5620504986473251 -1.3320925260122392
| 23> *
| 24>
| 25>                          ****END OF INPUT****

CARTESIAN COORDINATES (ANGSTROEM)
---------------------------------
  C     -1.581842   -0.140552   -0.511677
  C     -0.661540    0.483397    0.534296
  C      0.694746   -0.213871    0.644288
  N      1.549698   -0.142851   -0.556439
  H     -2.553350    0.363167   -0.533947
  H     -1.156474   -0.072549   -1.518725
  H     -1.758399   -1.200024   -0.292852
  H     -1.149644    0.447759    1.517244
  H     -0.497765    1.544925    0.303272
  H      1.253114    0.218480    1.482665
  H      0.537649   -1.272471    0.886680
  H      1.645279    0.837477   -0.811266
  H      1.044581   -0.562050   -1.332093

 Total Charge           Charge          ....    0
 Multiplicity           Mult            ....    1
 Number of Electrons    NEL             ....   34
 Basis Dimension        Dim             ....  178

ORBITAL ENERGIES
----------------

  NO   OCC          E(Eh)            E(eV)
   0   2.0000     -16.498083      -448.9357
   1   2.0000     -12.055217      -328.0391
   2   2.0000     -12.030065      -327.3547
   3   2.0000     -12.024397      -327.2005
   4   2.0000      -1.433725       -39.0136
   5   2.0000      -1.265118       -34.4256
   6   2.0000      -1.157127       -31.4870
   7   2.0000      -1.055017       -28.7085
   8   2.0000      -0.952197       -25.9106
   9   2.0000      -0.901053       -24.5189
  10   2.0000      -0.871022       -23.7017
  11   2.0000      -0.850926       -23.1549
  12   2.0000      -0.815713       -22.1967
  13   2.0000      -0.786938       -21.4137
  14   2.0000      -0.768628       -20.9154
  15   2.0000      -0.747305       -20.3352
  16   2.0000      -0.720158       -19.5965
  17   0.0000      -0.058449        -1.5905
  18   0.0000      -0.017353        -0.4722
  19   0.0000       0.003705         0.1008
  20   0.0000       0.016032         0.4363
  21   0.0000       0.020786         0.5656

MULLIKEN ATOMIC CHARGES
-----------------------
   0 C :   -0.396742
   1 C :   -0.181826
   2 C :   -0.092062
   3 N :   -0.594089
   4 H :    0.128390
   5 H :    0.115503
   6 H :    0.118249
   7 H :    0.099193
   8 H :    0.099655
   9 H :    0.112865
  10 H :    0.109256
  11 H :    0.238988
  12 H :    0.242618
Sum of atomic charges:    0.0000000

LOEWDIN ATOMIC CHARGES
----------------------
   0 C :   -0.319983
   1 C :   -0.308240
   2 C :   -0.343077
   3 N :   -0.205874
   4 H :    0.118360
   5 H :    0.115047
   6 H :    0.118668
   7 H :    0.134932
   8 H :    0.131047
   9 H :    0.125840
  10 H :    0.126815
  11 H :    0.154726
  12 H :    0.151739

  Mayer bond orders larger than 0.100000
B(  0-C ,  1-C ) :   0.9734 B(  0-C ,  4-H ) :   0.9786 B(  0-C ,  5-H ) :   0.9776
B(  0-C ,  6-H ) :   0.9754 B(  1-C ,  2-C ) :   0.9872 B(  1-C ,  7-H ) :   0.9652
B(  1-C ,  8-H ) :   0.9746 B(  2-C ,  3-N ) :   0.9854 B(  2-C ,  9-H ) :   0.9771
B(  2-C , 10-H ) :   0.9806 B(  3-N , 11-H ) :   0.9355 B(  3-N , 12-H ) :   0.9432

FINAL SINGLE POINT ENERGY      -174.496721815798

DIPOLE MOMENT
-------------

Method             : SCF
Type of density    : Electron Density
Multiplicity       :   1
Irrep              :   0
Energy             :  -174.5058700093978814 Eh
Relativity type    :
Basis              : AO
                                X                 Y                 Z
Electronic contribution:      1.831763325       0.065842000       0.154568279
Nuclear contribution   :     -2.527868313       0.305765049      -0.271418042
                        -----------------------------------------
Total Dipole Moment    :     -0.696104988       0.371607050      -0.116849763
                        -----------------------------------------
Magnitude (a.u.)       :      0.797689050
Magnitude (Debye)      :      2.027564433

Rotational constants in cm-1:             0.457355             0.163893             0.139418
Rotational constants in MHz :         13711.158848          4913.386988          4179.658535

                             ****ORCA TERMINATED NORMALLY****
TOTAL RUN TIME: 0 days 0 hours 0 minutes 50 seconds 486 msec
