                         Program Version 6.0.0  -   RELEASE  -
|  1> ! wb97x-v def2-tzvp def2/J RIJCOSX DEFGRID2 scfconv7 GCP(DFT/TZ) printgap
|  2> %output
|  3>     printlevel normal
|  4> end
|  5> * xyz 0 1
|  6> C 2.2040331505546504 1.0356488548349623 -0.406558207566986
|  7> C 1.1865469133569053 -0.07436427840748824 -0.2643111575367573
|  8> C 1.5847622402401784 -1.123845475729332 0.7539537471847402
|  9> O -0.05771494750265278 0.5816623429068212 0.1846716395040377
| 10> C -1.223221618848522 -0.035844676729983455 -0.080117362090758
| 11> O -1.3086932010217267 -1.089020493104087 -0.6925614840052529
| 12> C -2.3841435023281385 0.7269615497333913 0.4752679304414067
| 13> H 3.1495422288015367 0.6138742315656356 -0.7595587107674995
| 14> H 1.8698294173261054 1.7847238467305906 -1.1297175090753553
| 15> H 2.3827648040729783 1.5244397449654978 0.5565096752556904
| 16> H 0.9798925082739213 -0.5342037357911992 -1.2349384318992205
| 17> H 1.7659047135213835 -0.6595333856659611 1.7287323009438247
| 18> H 2.50788532256131 -1.6124486350050729 0.4275433645691217
| 19> H 0.8117758881389948 -1.8894013162909513 0.8619954256112982
| 20> H -3.3187722235697 0.2780892918858085 0.14085213965405907
| 21> H -2.333752096749212 1.7744493707669344 0.1667559901669002
| 22> H -2.3370337619863673 0.7029128840438752 1.5689490902483083
| 23> *
| 24>
| 25>                          ****END OF INPUT****

CARTESIAN COORDINATES (ANGSTROEM)
---------------------------------
  C      2.204033    1.035649   -0.406558
  C      1.186547   -0.074364   -0.264311
  C      1.584762   -1.123845    0.753954
  O     -0.057715    0.581662    0.184672
  C     -1.223222   -0.035845   -0.080117
  O     -1.308693   -1.089020   -0.692561
  C     -2.384144    0.726962    0.475268
  H      3.149542    0.613874   -0.759559
  H      1.869829    1.784724   -1.129718
  H      2.382765    1.524440    0.556510
  H      0.979893   -0.534204   -1.234938
  H      1.765905   -0.659533    1.728732
  H      2.507885   -1.612449    0.427543
  H      0.811776   -1.889401    0.861995
  H     -3.318772    0.278089    0.140852
  H     -2.333752    1.774449    0.166756
  H     -2.337034    0.702913    1.568949

 Total Charge           Charge          ....    0
 Multiplicity           Mult            ....    1
 Number of Electrons    NEL             ....   56
 Basis Dimension        Dim             ....  277

ORBITAL ENERGIES
----------------

  NO   OCC          E(Eh)            E(eV)
   0   2.0000     -21.711010      -590.7866
   1   2.0000     -21.651363      -589.1635
   2   2.0000     -12.176086      -331.3281
   3   2.0000     -12.111902      -329.5816
   4   2.0000     -12.055312      -328.0417
   5   2.0000     -12.045036      -327.7621
   6   2.0000     -12.041627      -327.6693
   7   2.0000      -1.750023       -47.6206
   8   2.0000      -1.685692       -45.8700
   9   2.0000      -1.334781       -36.3212
  10   2.0000      -1.260158       -34.2906
  11   2.0000      -1.196120       -32.5481
  12   2.0000      -1.164284       -31.6818
  13   2.0000      -1.089774       -29.6543
  14   2.0000      -1.047341       -28.4996
  15   2.0000      -0.990783       -26.9606
  16   2.0000      -0.980984       -26.6939
  17   2.0000      -0.931817       -25.3560
  18   2.0000      -0.902871       -24.5684
  19   2.0000      -0.883194       -24.0329
  20   2.0000      -0.859726       -23.3943
  21   2.0000      -0.847870       -23.0717
  22   2.0000      -0.836866       -22.7723
  23   2.0000      -0.834785       -22.7157
  24   2.0000      -0.825234       -22.4558
  25   2.0000      -0.819992       -22.3131
  26   2.0000      -0.798299       -21.7228
  27   2.0000      -0.780780       -21.2461
  28   0.0000      -0.300249        -8.1702
  29   0.0000      -0.191150        -5.2015
  30   0.0000      -0.101073        -2.7503
  31   0.0000      -0.021871        -0.5951
  32   0.0000      -0.009139        -0.2487

MULLIKEN ATOMIC CHARGES
-----------------------
   0 C :   -0.313158
   1 C :    0.095028
   2 C :   -0.360940
   3 O :   -0.250624
   4 C :    0.326712
   5 O :   -0.367409
   6 C :   -0.340316
   7 H :    0.111211
   8 H :    0.119953
   9 H :    0.112941
  10 H :    0.101838
  11 H :    0.109231
  12 H :    0.112948
  13 H :    0.143310
  14 H :    0.137828
  15 H :    0.131414
  16 H :    0.130033
Sum of atomic charges:   -0.0000000

LOEWDIN ATOMIC CHARGES
----------------------
   0 C :   -0.279102
   1 C :   -0.315613
   2 C :   -0.279118
   3 O :    0.255442
   4 C :   -0.492752
   5 O :    0.072226
   6 C :   -0.255330
   7 H :    0.125798
   8 H :    0.122521
   9 H :    0.122825
  10 H :    0.144286
  11 H :    0.121901
  12 H :    0.125856
  13 H :    0.127224
  14 H :    0.132670
  15 H :    0.134052
  16 H :    0.137112

  Mayer bond orders larger than 0.100000
B(  0-C ,  1-C ) :   0.9807 B(  0-C ,  7-H ) :   0.9755 B(  0-C ,  8-H ) :   0.9789
B(  0-C ,  9-H ) :   0.9718 B(  1-C ,  2-C ) :   0.9889 B(  1-C ,  3-O ) :   0.8609
B(  1-C , 10-H ) :   0.9738 B(  2-C , 11-H ) :   0.9712 B(  2-C , 12-H ) :   0.9738
B(  2-C , 13-H ) :   0.9755 B(  3-O ,  4-C ) :   1.1942 B(  4-C ,  5-O ) :   2.0311
B(  4-C ,  6-C ) :   0.9800 B(  6-C , 14-H ) :   0.9847 B(  6-C , 15-H ) :   0.9598
B(  6-C , 16-H ) :   0.9526

FINAL SINGLE POINT ENERGY      -347.045388514163

DIPOLE MOMENT
-------------

Method             : SCF
Type of density    : Electron Density
Multiplicity       :   1
Irrep              :   0
Energy             :  -347.0571413135629086 Eh
Relativity type    :
Basis              : AO
                                X                 Y                 Z
Electronic contribution:     -4.689675318      -1.226973161      -1.807006445
Nuclear contribution   :      5.110727849       1.831612075       2.179049864
                        -----------------------------------------
Total Dipole Moment    :      0.421052530       0.604638914       0.372043420
                        -----------------------------------------
Magnitude (a.u.)       :      0.825402784
Magnitude (Debye)      :      2.098007146

Rotational constants in cm-1:             0.158570             0.055737             0.048567
Rotational constants in MHz :          4753.822093          1670.948906          1456.002515

                             ****ORCA TERMINATED NORMALLY****
TOTAL RUN TIME: 0 days 0 hours 1 minutes 54 seconds 876 msec
