                         Program Version 6.0.0  -   RELEASE  -
|  1> ! wb97x-v def2-tzvp def2/J RIJCOSX DEFGRID2 scfconv7 GCP(DFT/TZ) printgap
|  2> %output
|  3>     printlevel normal
|  4> end
|  5> %cpcm
|  6>     smd true
|  7>     smdsolvent "water"
|  8> end
|  9> * xyz 0 1
| 10> C 2.2040331505546504 1.0356488548349623 -0.406558207566986
| 11> C 1.1865469133569053 -0.07436427840748824 -0.2643111575367573
| 12> C 1.5847622402401784 -1.123845475729332 0.7539537471847402
| 13> O -0.05771494750265278 0.5816623429068212 0.1846716395040377
| 14> C -1.223221618848522 -0.035844676729983455 -0.080117362090758
| 15> O -1.3086932010217267 -1.089020493104087 -0.6925614840052529
| 16> C -2.3841435023281385 0.7269615497333913 0.4752679304414067
| 17> H 3.1495422288015367 0.6138742315656356 -0.7595587107674995
| 18> H 1.8698294173261054 1.7847238467305906 -1.1297175090753553
| 19> H 2.3827648040729783 1.5244397449654978 0.5565096752556904
| 20> H 0.9798925082739213 -0.5342037357911992 -1.2349384318992205
| 21> H 1.7659047135213835 -0.6595333856659611 1.7287323009438247
| 22> H 2.50788532256131 -1.6124486350050729 0.4275433645691217
| 23> H 0.8117758881389948 -1.8894013162909513 0.8619954256112982
| 24> H -3.3187722235697 0.2780892918858085 0.14085213965405907
| 25> H -2.333752096749212 1.7744493707669344 0.1667559901669002
| 26> H -2.3370337619863673 0.7029128840438752 1.5689490902483083
| 27> *
| 28>
| 29>                          ****END OF INPUT****

CARTESIAN COORDINATES (ANGSTROEM)
---------------------------------
  C      2.204033    1.035649   -0.406558
  C      1.186547   -0.074364   -0.264311
  C      1.584762   -1.123845    0.753954
  O     -0.057715    0.581662    0.184672
  C     -1.223222   -0.035845   -0.080117
  O     -1.308693   -1.089020   -0.692561
  C     -2.384144    0.726962    0.475268
  H      3.149542    0.613874   -0.759559
  H      1.869829    1.784724   -1.129718
  H      2.382765    1.524440    0.556510
  H      0.979893   -0.534204   -1.234938
  H      1.765905   -0.659533    1.728732
  H      2.507885   -1.612449    0.427543
  H      0.811776   -1.889401    0.861995
  H     -3.318772    0.278089    0.140852
  H     -2.333752    1.774449    0.166756
  H     -2.337034    0.702913    1.568949

 Total Charge           Charge          ....    0
 Multiplicity           Mult            ....    1
 Number of Electrons    NEL             ....   56
 Basis Dimension        Dim             ....  277

ORBITAL ENERGIES
----------------

  NO   OCC          E(Eh)            E(eV)
   0   2.0000     -21.716599      -590.9387
   1   2.0000     -21.665996      -589.5617
   2   2.0000     -12.186666      -331.6160
   3   2.0000     -12.105498      -329.4074
   4   2.0000     -12.045918      -327.7861
   5   2.0000     -12.032117      -327.4106
   6   2.0000     -12.031446      -327.3923
   7   2.0000      -1.758764       -47.8584
   8   2.0000      -1.698514       -46.2189
   9   2.0000      -1.330738       -36.2112
  10   2.0000      -1.255057       -34.1518
  11   2.0000      -1.186771       -32.2937
  12   2.0000      -1.161647       -31.6100
  13   2.0000      -1.102100       -29.9897
  14   2.0000      -1.053595       -28.6698
  15   2.0000      -0.993291       -27.0288
  16   2.0000      -0.981249       -26.7011
  17   2.0000      -0.937008       -25.4973
  18   2.0000      -0.914141       -24.8750
  19   2.0000      -0.878561       -23.9069
  20   2.0000      -0.862300       -23.4644
  21   2.0000      -0.841253       -22.8916
  22   2.0000      -0.831676       -22.6310
  23   2.0000      -0.826684       -22.4952
  24   2.0000      -0.815962       -22.2034
  25   2.0000      -0.808321       -21.9955
  26   2.0000      -0.788243       -21.4492
  27   2.0000      -0.771627       -20.9970
  28   0.0000      -0.305237        -8.3059
  29   0.0000      -0.186758        -5.0820
  30   0.0000      -0.105225        -2.8633
  31   0.0000      -0.013658        -0.3717
  32   0.0000      -0.003862        -0.1051

MULLIKEN ATOMIC CHARGES
-----------------------
   0 C :   -0.374158
   1 C :    0.111480
   2 C :   -0.395210
   3 O :   -0.279182
   4 C :    0.410773
   5 O :   -0.485061
   6 C :   -0.382830
   7 H :    0.136645
   8 H :    0.136681
   9 H :    0.130772
  10 H :    0.108735
  11 H :    0.129550
  12 H :    0.140612
  13 H :    0.138518
  14 H :    0.147080
  15 H :    0.161061
  16 H :    0.164535
Sum of atomic charges:   -0.0000000

LOEWDIN ATOMIC CHARGES
----------------------
   0 C :   -0.281706
   1 C :   -0.313290
   2 C :   -0.282018
   3 O :    0.250832
   4 C :   -0.474455
   5 O :    0.009575
   6 C :   -0.251008
   7 H :    0.133186
   8 H :    0.125251
   9 H :    0.126135
  10 H :    0.145546
  11 H :    0.126757
  12 H :    0.133107
  13 H :    0.124430
  14 H :    0.136035
  15 H :    0.143649
  16 H :    0.147974

  Mayer bond orders larger than 0.100000
B(  0-C ,  1-C ) :   0.9841 B(  0-C ,  7-H ) :   0.9709 B(  0-C ,  8-H ) :   0.9752
B(  0-C ,  9-H ) :   0.9692 B(  1-C ,  2-C ) :   0.9848 B(  1-C ,  3-O ) :   0.8356
B(  1-C , 10-H ) :   0.9741 B(  2-C , 11-H ) :   0.9673 B(  2-C , 12-H ) :   0.9705
B(  2-C , 13-H ) :   0.9727 B(  3-O ,  4-C ) :   1.2097 B(  4-C ,  5-O ) :   1.9074
B(  4-C ,  6-C ) :   0.9928 B(  6-C , 14-H ) :   0.9741 B(  6-C , 15-H ) :   0.9523
B(  6-C , 16-H ) :   0.9438

FINAL SINGLE POINT ENERGY      -347.051261797641

DIPOLE MOMENT
-------------

Method             : SCF
Type of density    : Electron Density
Multiplicity       :   1
Irrep              :   0
Energy             :  -347.0630145970410467 Eh
Relativity type    :
Basis              : AO
                                X                 Y                 Z
Electronic contribution:     -4.528754399      -0.974780013      -1.657008911
Nuclear contribution   :      5.110727849       1.831612075       2.179049864
                        -----------------------------------------
Total Dipole Moment    :      0.581973450       0.856832062       0.522040954
                        -----------------------------------------
Magnitude (a.u.)       :      1.159905615
Magnitude (Debye)      :      2.948245772

Rotational constants in cm-1:             0.158570             0.055737             0.048567
Rotational constants in MHz :          4753.822093          1670.948906          1456.002515

                             ****ORCA TERMINATED NORMALLY****
TOTAL RUN TIME: 0 days 0 hours 1 minutes 58 seconds 102 msec
