                         Program Version 6.0.0  -   RELEASE  -
|  1> ! r2scan-3c def2/J RI DEFGRID2 scfconv6 printgap
|  2> %output
|  3>     printlevel normal
|  4> end
|  5> * xyz 0 1
|  6> C 2.1084488274 0.0245355836 0.0009967442
|  7> N 0.6705497798 -0.0096508872 -0.0013521935
|  8> C -0.1236026938 -1.1176498304 -0.0003145603
|  9> C -1.4112642625 -0.6628566026 0.0003216211
| 10> N -1.4233488538 0.6975919543 0.0006457942
| 11> C -0.1624992904 1.0517028918 -0.0005665736
| 12> H 2.4713835468 0.5210184093 0.9015617514
| 13> H 2.4891707185 -0.993403621 -0.0253581859
| 14> H 2.4722997868 0.5677847934 -0.8714246802
| 15> H 0.2764813288 -2.1097809139 -0.0006874685
| 16> H -2.3265963233 -1.2200431743 0.0012309296
| 17> H 0.1799181688 2.0666873051 -0.0007160683
| 18> *
| 19>
| 20>                          ****END OF INPUT****

CARTESIAN COORDINATES (ANGSTROEM)
---------------------------------
  C      2.108449    0.024536    0.000997
  N      0.670550   -0.009651   -0.001352
  C     -0.123603   -1.117650   -0.000315
  C     -1.411264   -0.662857    0.000322
  N     -1.423349    0.697592    0.000646
  C     -0.162499    1.051703   -0.000567
  H      2.471384    0.521018    0.901562
  H      2.489171   -0.993404   -0.025358
  H      2.472300    0.567785   -0.871425
  H      0.276481   -2.109781   -0.000687
  H     -2.326596   -1.220043    0.001231
  H      0.179918    2.066687   -0.000716

 Total Charge           Charge          ....    0
 Multiplicity           Mult            ....    1
 Number of Electrons    NEL             ....   44
 Basis Dimension        Dim             ....  154

ORBITAL ENERGIES
----------------

  NO   OCC          E(Eh)            E(eV)
   0   2.0000     -14.222153      -387.0045
   1   2.0000     -14.131828      -384.5466
   2   2.0000     -10.087897      -274.5056
   3   2.0000     -10.072327      -274.0819
   4   2.0000     -10.052831      -273.5514
   5   2.0000     -10.036167      -273.0980
   6   2.0000      -0.991757       -26.9871
   7   2.0000      -0.856684       -23.3116
   8   2.0000      -0.720378       -19.6025
   9   2.0000      -0.689123       -18.7520
  10   2.0000      -0.566900       -15.4261
  11   2.0000      -0.546028       -14.8582
  12   2.0000      -0.507676       -13.8146
  13   2.0000      -0.451418       -12.2837
  14   2.0000      -0.424077       -11.5397
  15   2.0000      -0.400020       -10.8851
  16   2.0000      -0.384732       -10.4691
  17   2.0000      -0.371542       -10.1102
  18   2.0000      -0.369461       -10.0535
  19   2.0000      -0.248916        -6.7734
  20   2.0000      -0.232915        -6.3379
  21   2.0000      -0.206465        -5.6182
  22   0.0000      -0.001881        -0.0512
  23   0.0000       0.037186         1.0119
  24   0.0000       0.069712         1.8970
  25   0.0000       0.096362         2.6222
  26   0.0000       0.111354         3.0301

MULLIKEN ATOMIC CHARGES
-----------------------
   0 C :   -0.393660
   1 N :    0.199443
   2 C :   -0.207706
   3 C :   -0.127656
   4 N :   -0.191510
   5 C :   -0.158897
   6 H :    0.164155
   7 H :    0.157942
   8 H :    0.163483
   9 H :    0.131452
  10 H :    0.132835
  11 H :    0.130120
Sum of atomic charges:   -0.0000000

LOEWDIN ATOMIC CHARGES
----------------------
   0 C :   -0.089603
   1 N :   -0.783482
   2 C :    0.060879
   3 C :    0.048099
   4 N :   -0.566746
   5 C :    0.214983
   6 H :    0.180394
   7 H :    0.187716
   8 H :    0.180910
   9 H :    0.186178
  10 H :    0.181489
  11 H :    0.199185

  Mayer bond orders larger than 0.100000
B(  0-C ,  1-N ) :   0.9107 B(  0-C ,  6-H ) :   0.9551 B(  0-C ,  7-H ) :   0.9650
B(  0-C ,  8-H ) :   0.9563 B(  1-N ,  2-C ) :   1.2309 B(  1-N ,  5-C ) :   1.2529
B(  2-C ,  3-C ) :   1.4815 B(  2-C ,  5-C ) :   0.1058 B(  2-C ,  9-H ) :   0.9531
B(  3-C ,  4-N ) :   1.3221 B(  3-C , 10-H ) :   0.9744 B(  4-N ,  5-C ) :   1.6018
B(  5-C , 11-H ) :   0.9589

Dispersion correction           -0.003065065
FINAL SINGLE POINT ENERGY      -265.449268866715

DIPOLE MOMENT
-------------

Method             : SCF
Type of density    : Electron Density
Multiplicity       :   1
Irrep              :   0
Energy             :  -265.4581735044462221 Eh
Relativity type    :
Basis              : AO
                                X                 Y                 Z
Electronic contribution:     -3.634616970       0.651030338      -0.004539949
Nuclear contribution   :      5.214593668      -1.091751746       0.004317599
                        -----------------------------------------
Total Dipole Moment    :      1.579976698      -0.440721408      -0.000222349
                        -----------------------------------------
Magnitude (a.u.)       :      1.640293198
Magnitude (Debye)      :      4.169293970

Rotational constants in cm-1:             0.312985             0.121972             0.089241
Rotational constants in MHz :          9383.065813          3656.620599          2675.390977

                             ****ORCA TERMINATED NORMALLY****
TOTAL RUN TIME: 0 days 0 hours 0 minutes 16 seconds 58 msec
