                         Program Version 6.0.0  -   RELEASE  -
|  1> ! r2scan-3c def2/J RI DEFGRID2 scfconv6 printgap
|  2> %output
|  3>     printlevel normal
|  4> end
|  5> %cpcm
|  6>     smd true
|  7>     smdsolvent "water"
|  8> end
|  9> * xyz 0 1
| 10> C 2.1084488274 0.0245355836 0.0009967442
| 11> N 0.6705497798 -0.0096508872 -0.0013521935
| 12> C -0.1236026938 -1.1176498304 -0.0003145603
| 13> C -1.4112642625 -0.6628566026 0.0003216211
| 14> N -1.4233488538 0.6975919543 0.0006457942
| 15> C -0.1624992904 1.0517028918 -0.0005665736
| 16> H 2.4713835468 0.5210184093 0.9015617514
| 17> H 2.4891707185 -0.993403621 -0.0253581859
| 18> H 2.4722997868 0.5677847934 -0.8714246802
| 19> H 0.2764813288 -2.1097809139 -0.0006874685
| 20> H -2.3265963233 -1.2200431743 0.0012309296
| 21> H 0.1799181688 2.0666873051 -0.0007160683
| 22> *
| 23>
| 24>                          ****END OF INPUT****

CARTESIAN COORDINATES (ANGSTROEM)
---------------------------------
  C      2.108449    0.024536    0.000997
  N      0.670550   -0.009651   -0.001352
  C     -0.123603   -1.117650   -0.000315
  C     -1.411264   -0.662857    0.000322
  N     -1.423349    0.697592    0.000646
  C     -0.162499    1.051703   -0.000567
  H      2.471384    0.521018    0.901562
  H      2.489171   -0.993404   -0.025358
  H      2.472300    0.567785   -0.871425
  H      0.276481   -2.109781   -0.000687
  H     -2.326596   -1.220043    0.001231
  H      0.179918    2.066687   -0.000716

 Total Charge           Charge          ....    0
 Multiplicity           Mult            ....    1
 Number of Electrons    NEL             ....   44
 Basis Dimension        Dim             ....  154

ORBITAL ENERGIES
----------------

  NO   OCC          E(Eh)            E(eV)
   0   2.0000     -14.219613      -386.9353
   1   2.0000     -14.140996      -384.7961
   2   2.0000     -10.072424      -274.0846
   3   2.0000     -10.061892      -273.7980
   4   2.0000     -10.050650      -273.4921
   5   2.0000     -10.037708      -273.1399
   6   2.0000      -0.991327       -26.9754
   7   2.0000      -0.856970       -23.3193
   8   2.0000      -0.716280       -19.4910
   9   2.0000      -0.677890       -18.4463
  10   2.0000      -0.565581       -15.3902
  11   2.0000      -0.541822       -14.7437
  12   2.0000      -0.497567       -13.5395
  13   2.0000      -0.438820       -11.9409
  14   2.0000      -0.411391       -11.1945
  15   2.0000      -0.395362       -10.7584
  16   2.0000      -0.373017       -10.1503
  17   2.0000      -0.363992        -9.9047
  18   2.0000      -0.361757        -9.8439
  19   2.0000      -0.251613        -6.8467
  20   2.0000      -0.248801        -6.7702
  21   2.0000      -0.209564        -5.7025
  22   0.0000      -0.001734        -0.0472
  23   0.0000       0.031606         0.8601
  24   0.0000       0.086643         2.3577
  25   0.0000       0.115293         3.1373
  26   0.0000       0.123026         3.3477

MULLIKEN ATOMIC CHARGES
-----------------------
   0 C :   -0.418550
   1 N :    0.204192
   2 C :   -0.222986
   3 C :   -0.186485
   4 N :   -0.280643
   5 C :   -0.155259
   6 H :    0.183594
   7 H :    0.186768
   8 H :    0.183349
   9 H :    0.174933
  10 H :    0.161373
  11 H :    0.169715
Sum of atomic charges:    0.0000000

LOEWDIN ATOMIC CHARGES
----------------------
   0 C :   -0.083574
   1 N :   -0.764580
   2 C :    0.067903
   3 C :    0.019049
   4 N :   -0.639860
   5 C :    0.215085
   6 H :    0.190346
   7 H :    0.198906
   8 H :    0.190929
   9 H :    0.203465
  10 H :    0.188948
  11 H :    0.213384

  Mayer bond orders larger than 0.100000
B(  0-C ,  1-N ) :   0.9141 B(  0-C ,  6-H ) :   0.9444 B(  0-C ,  7-H ) :   0.9555
B(  0-C ,  8-H ) :   0.9456 B(  1-N ,  2-C ) :   1.2171 B(  1-N ,  5-C ) :   1.2721
B(  2-C ,  3-C ) :   1.4766 B(  2-C ,  9-H ) :   0.9626 B(  3-C ,  4-N ) :   1.3087
B(  3-C , 10-H ) :   0.9709 B(  4-N ,  5-C ) :   1.5908 B(  5-C , 11-H ) :   0.9511

Dispersion correction           -0.003065065
FINAL SINGLE POINT ENERGY      -265.461607026467

DIPOLE MOMENT
-------------

Method             : SCF
Type of density    : Electron Density
Multiplicity       :   1
Irrep              :   0
Energy             :  -265.4705116641982272 Eh
Relativity type    :
Basis              : AO
                                X                 Y                 Z
Electronic contribution:     -3.012655323       0.484332966      -0.004698502
Nuclear contribution   :      5.214593668      -1.091751746       0.004317599
                        -----------------------------------------
Total Dipole Moment    :      2.201938345      -0.607418780      -0.000380903
                        -----------------------------------------
Magnitude (a.u.)       :      2.284182609
Magnitude (Debye)      :      5.805930788

Rotational constants in cm-1:             0.312985             0.121972             0.089241
Rotational constants in MHz :          9383.065813          3656.620599          2675.390977

                             ****ORCA TERMINATED NORMALLY****
TOTAL RUN TIME: 0 days 0 hours 0 minutes 19 seconds 539 msec
