                         Program Version 6.0.0  -   RELEASE  -
|  1> ! pbe def2-sv(p) def2/J RI DEFGRID1 loosescf d4 GCP(DFT/SV(P)) printgap
|  2> %output
|  3>     printlevel normal
|  4> end
|  5> * xyz 0 1
|  6> C -2.6409524482 -0.1962871144 1.1446838604
|  7> C -1.7435974373 0.0013953826 -0.0406633941
|  8> O -2.1580966079 -0.0247848434 -1.1833954341
|  9> C -0.2802726616 0.2107729549 0.2883310001
| 10> C 0.4025648664 1.1465808536 -0.7209611413
| 11> C 1.8844843434 0.8071543229 -0.9098365343
| 12> C 2.4779105134 0.297441283 0.3990888283
| 13> C 1.8444531226 -1.0461131374 0.7818401388
| 14> C 0.4083132117 -1.1634380792 0.2593030587
| 15> H -2.7784947197 0.7681402759 1.630341722
| 16> H -3.6093096543 -0.5753853824 0.8302581919
| 17> H -2.1821050598 -0.8707080671 1.8617339229
| 18> H -0.1995915844 0.6108204651 1.301508332
| 19> H -0.1202503095 1.0684839572 -1.6772335606
| 20> H 0.2995318349 2.175568895 -0.3712939067
| 21> H 2.0027609185 0.0410163448 -1.6775633398
| 22> H 2.4195438241 1.6954345691 -1.2477676576
| 23> H 3.558360919 0.1838224547 0.3046297488
| 24> H 2.2921726763 1.0374684818 1.1794342918
| 25> H 2.432572134 -1.8662682457 0.367783945
| 26> H 1.8501516 -1.1520729104 1.8675326607
| 27> H 0.4004676841 -1.5264274717 -0.7696725019
| 28> H -0.1474088289 -1.8817551983 0.8640123531
| 29> *
| 30>
| 31>                          ****END OF INPUT****

CARTESIAN COORDINATES (ANGSTROEM)
---------------------------------
  C     -2.640952   -0.196287    1.144684
  C     -1.743597    0.001395   -0.040663
  O     -2.158097   -0.024785   -1.183395
  C     -0.280273    0.210773    0.288331
  C      0.402565    1.146581   -0.720961
  C      1.884484    0.807154   -0.909837
  C      2.477911    0.297441    0.399089
  C      1.844453   -1.046113    0.781840
  C      0.408313   -1.163438    0.259303
  H     -2.778495    0.768140    1.630342
  H     -3.609310   -0.575385    0.830258
  H     -2.182105   -0.870708    1.861734
  H     -0.199592    0.610820    1.301508
  H     -0.120250    1.068484   -1.677234
  H      0.299532    2.175569   -0.371294
  H      2.002761    0.041016   -1.677563
  H      2.419544    1.695435   -1.247768
  H      3.558361    0.183822    0.304630
  H      2.292173    1.037468    1.179434
  H      2.432572   -1.866268    0.367784
  H      1.850152   -1.152073    1.867533
  H      0.400468   -1.526427   -0.769673
  H     -0.147409   -1.881755    0.864012

 Total Charge           Charge          ....    0
 Multiplicity           Mult            ....    1
 Number of Electrons    NEL             ....   70
 Basis Dimension        Dim             ....  154

ORBITAL ENERGIES
----------------

  NO   OCC          E(Eh)            E(eV)
   0   2.0000     -18.735499      -509.8189
   1   2.0000      -9.970400      -271.3084
   2   2.0000      -9.899022      -269.3661
   3   2.0000      -9.894921      -269.2545
   4   2.0000      -9.888092      -269.0687
   5   2.0000      -9.886672      -269.0300
   6   2.0000      -9.884056      -268.9588
   7   2.0000      -9.882028      -268.9036
   8   2.0000      -9.880278      -268.8560
   9   2.0000      -0.933113       -25.3913
  10   2.0000      -0.762277       -20.7426
  11   2.0000      -0.693418       -18.8689
  12   2.0000      -0.666867       -18.1464
  13   2.0000      -0.655725       -17.8432
  14   2.0000      -0.565571       -15.3900
  15   2.0000      -0.548842       -14.9348
  16   2.0000      -0.489177       -13.3112
  17   2.0000      -0.461785       -12.5658
  18   2.0000      -0.446067       -12.1381
  19   2.0000      -0.426027       -11.5928
  20   2.0000      -0.408826       -11.1247
  21   2.0000      -0.391303       -10.6479
  22   2.0000      -0.380395       -10.3511
  23   2.0000      -0.377521       -10.2729
  24   2.0000      -0.355083        -9.6623
  25   2.0000      -0.339262        -9.2318
  26   2.0000      -0.333146        -9.0654
  27   2.0000      -0.330743        -9.0000
  28   2.0000      -0.322664        -8.7801
  29   2.0000      -0.312380        -8.5003
  30   2.0000      -0.304171        -8.2769
  31   2.0000      -0.270839        -7.3699
  32   2.0000      -0.264992        -7.2108
  33   2.0000      -0.264210        -7.1895
  34   2.0000      -0.194307        -5.2874
  35   0.0000      -0.046879        -1.2756
  36   0.0000       0.020753         0.5647
  37   0.0000       0.043874         1.1939
  38   0.0000       0.058441         1.5903
  39   0.0000       0.068090         1.8528

MULLIKEN ATOMIC CHARGES
-----------------------
   0 C :   -0.245138
   1 C :    0.034723
   2 O :   -0.168755
   3 C :   -0.205416
   4 C :   -0.108856
   5 C :   -0.153867
   6 C :   -0.160225
   7 C :   -0.130001
   8 C :   -0.141110
   9 H :    0.128270
  10 H :    0.117002
  11 H :    0.118631
  12 H :    0.063438
  13 H :    0.099049
  14 H :    0.078923
  15 H :    0.079196
  16 H :    0.085724
  17 H :    0.087125
  18 H :    0.077010
  19 H :    0.085340
  20 H :    0.080790
  21 H :    0.089946
  22 H :    0.088200
Sum of atomic charges:   -0.0000000

LOEWDIN ATOMIC CHARGES
----------------------
   0 C :   -0.360153
   1 C :    0.052827
   2 O :   -0.129952
   3 C :   -0.170049
   4 C :   -0.218943
   5 C :   -0.228144
   6 C :   -0.231046
   7 C :   -0.227069
   8 C :   -0.208514
   9 H :    0.146474
  10 H :    0.133648
  11 H :    0.134981
  12 H :    0.118644
  13 H :    0.125094
  14 H :    0.117079
  15 H :    0.116099
  16 H :    0.119257
  17 H :    0.118630
  18 H :    0.113726
  19 H :    0.119855
  20 H :    0.116407
  21 H :    0.123988
  22 H :    0.117158

  Mayer bond orders larger than 0.100000
B(  0-C ,  1-C ) :   1.0834 B(  0-C ,  9-H ) :   0.9201 B(  0-C , 10-H ) :   0.9328
B(  0-C , 11-H ) :   0.9255 B(  1-C ,  2-O ) :   2.1852 B(  1-C ,  3-C ) :   0.9108
B(  3-C ,  4-C ) :   1.0868 B(  3-C ,  8-C ) :   1.1225 B(  3-C , 12-H ) :   0.8799
B(  4-C ,  5-C ) :   1.1547 B(  4-C , 13-H ) :   0.8940 B(  4-C , 14-H ) :   0.9180
B(  5-C ,  6-C ) :   1.1836 B(  5-C , 15-H ) :   0.9067 B(  5-C , 16-H ) :   0.9193
B(  6-C ,  7-C ) :   1.1385 B(  6-C , 17-H ) :   0.9221 B(  6-C , 18-H ) :   0.9115
B(  7-C ,  8-C ) :   1.1495 B(  7-C , 19-H ) :   0.9165 B(  7-C , 20-H ) :   0.9201
B(  8-C , 21-H ) :   0.8936 B(  8-C , 22-H ) :   0.9184

Dispersion correction           -0.021854352
FINAL SINGLE POINT ENERGY      -387.601571113787

DIPOLE MOMENT
-------------

Method             : SCF
Type of density    : Electron Density
Multiplicity       :   1
Irrep              :   0
Energy             :  -387.6793964877228404 Eh
Relativity type    :
Basis              : AO
                                X                 Y                 Z
Electronic contribution:     -5.362722193       0.262094394      -3.266011613
Nuclear contribution   :      5.801886102      -0.274182430       4.170144593
                        -----------------------------------------
Total Dipole Moment    :      0.439163909      -0.012088036       0.904132980
                        -----------------------------------------
Magnitude (a.u.)       :      1.005220128
Magnitude (Debye)      :      2.555066510

Rotational constants in cm-1:             0.102008             0.036330             0.031044
Rotational constants in MHz :          3058.114650          1089.155028           930.688823

                             ****ORCA TERMINATED NORMALLY****
TOTAL RUN TIME: 0 days 0 hours 0 minutes 10 seconds 294 msec
