                         Program Version 6.0.0  -   RELEASE  -
|  1> ! wb97x-v def2-tzvp def2/J RIJCOSX DEFGRID2 scfconv7 GCP(DFT/TZ) printgap
|  2> %output
|  3>     printlevel normal
|  4> end
|  5> * xyz 0 1
|  6> C 2.844441081635316 -0.769162985852056 0.1375934407659236
|  7> C 1.987985219773852 0.4650717638424865 -0.11652168301662924
|  8> C 0.4950049243004104 0.25541503436019003 -0.05840525422481019
|  9> C -0.3705192736461247 1.337728793042722 -0.24481593998615347
| 10> C -1.7417656624282953 1.139231596234453 -0.19151723196599613
| 11> C -2.220444716045622 -0.14450771300249146 0.04875594128585599
| 12> N -1.4193804046985419 -1.2008177822511354 0.23145915235944123
| 13> C -0.09312284455775607 -0.9870913750767624 0.17572742235224537
| 14> H 2.657376398293466 -1.1917540688692716 1.130211278680543
| 15> H 3.903837094811892 -0.5034315491112474 0.08194627837297465
| 16> H 2.6574917690998716 -1.551291136046074 -0.6053864079337301
| 17> H 2.232687682684729 0.8849486714033208 -1.1006263014563828
| 18> H 2.2472510472299603 1.2473136744721751 0.6080789936405543
| 19> H 0.03636496480314633 2.328679709385959 -0.42980199843939526
| 20> H -2.4337377078804505 1.9628833842618525 -0.3327480690898839
| 21> H -3.29099026800009 -0.33172279265738996 0.0960975303220639
| 22> H 0.5275260163414864 -1.8656743060852756 0.32900291407325133
| 23> *
| 24>
| 25>                          ****END OF INPUT****

CARTESIAN COORDINATES (ANGSTROEM)
---------------------------------
  C      2.844441   -0.769163    0.137593
  C      1.987985    0.465072   -0.116522
  C      0.495005    0.255415   -0.058405
  C     -0.370519    1.337729   -0.244816
  C     -1.741766    1.139232   -0.191517
  C     -2.220445   -0.144508    0.048756
  N     -1.419380   -1.200818    0.231459
  C     -0.093123   -0.987091    0.175727
  H      2.657376   -1.191754    1.130211
  H      3.903837   -0.503432    0.081946
  H      2.657492   -1.551291   -0.605386
  H      2.232688    0.884949   -1.100626
  H      2.247251    1.247314    0.608079
  H      0.036365    2.328680   -0.429802
  H     -2.433738    1.962883   -0.332748
  H     -3.290990   -0.331723    0.096098
  H      0.527526   -1.865674    0.329003

 Total Charge           Charge          ....    0
 Multiplicity           Mult            ....    1
 Number of Electrons    NEL             ....   58
 Basis Dimension        Dim             ....  302

ORBITAL ENERGIES
----------------

  NO   OCC          E(Eh)            E(eV)
   0   2.0000     -16.522997      -449.6136
   1   2.0000     -12.079987      -328.7131
   2   2.0000     -12.078692      -328.6779
   3   2.0000     -12.067548      -328.3747
   4   2.0000     -12.065298      -328.3135
   5   2.0000     -12.059027      -328.1428
   6   2.0000     -12.057788      -328.1091
   7   2.0000     -12.044837      -327.7567
   8   2.0000      -1.513459       -41.1833
   9   2.0000      -1.354830       -36.8668
  10   2.0000      -1.309861       -35.6431
  11   2.0000      -1.257979       -34.2314
  12   2.0000      -1.163592       -31.6629
  13   2.0000      -1.139891       -31.0180
  14   2.0000      -1.097123       -29.8542
  15   2.0000      -0.995514       -27.0893
  16   2.0000      -0.973942       -26.5023
  17   2.0000      -0.919280       -25.0149
  18   2.0000      -0.890941       -24.2437
  19   2.0000      -0.882671       -24.0187
  20   2.0000      -0.870279       -23.6815
  21   2.0000      -0.849436       -23.1143
  22   2.0000      -0.825513       -22.4634
  23   2.0000      -0.825013       -22.4497
  24   2.0000      -0.801756       -21.8169
  25   2.0000      -0.784906       -21.3584
  26   2.0000      -0.757865       -20.6225
  27   2.0000      -0.692033       -18.8312
  28   2.0000      -0.644400       -17.5350
  29   0.0000      -0.289975        -7.8906
  30   0.0000      -0.242951        -6.6110
  31   0.0000      -0.095859        -2.6084
  32   0.0000      -0.054891        -1.4937
  33   0.0000      -0.045198        -1.2299

MULLIKEN ATOMIC CHARGES
-----------------------
   0 C :   -0.376291
   1 C :   -0.137174
   2 C :    0.105961
   3 C :   -0.209586
   4 C :   -0.081867
   5 C :   -0.055629
   6 N :   -0.211129
   7 C :   -0.114714
   8 H :    0.122004
   9 H :    0.123215
  10 H :    0.120995
  11 H :    0.107359
  12 H :    0.107415
  13 H :    0.126103
  14 H :    0.122552
  15 H :    0.120213
  16 H :    0.130573
Sum of atomic charges:    0.0000000

LOEWDIN ATOMIC CHARGES
----------------------
   0 C :   -0.300904
   1 C :   -0.243779
   2 C :   -0.155322
   3 C :   -0.092862
   4 C :   -0.152943
   5 C :   -0.207410
   6 N :    0.120586
   7 C :   -0.177654
   8 H :    0.120116
   9 H :    0.119770
  10 H :    0.119717
  11 H :    0.144041
  12 H :    0.143871
  13 H :    0.146870
  14 H :    0.143301
  15 H :    0.133811
  16 H :    0.138791

  Mayer bond orders larger than 0.100000
B(  0-C ,  1-C ) :   0.9934 B(  0-C ,  8-H ) :   0.9800 B(  0-C ,  9-H ) :   0.9803
B(  0-C , 10-H ) :   0.9792 B(  1-C ,  2-C ) :   0.9428 B(  1-C , 11-H ) :   0.9620
B(  1-C , 12-H ) :   0.9662 B(  2-C ,  3-C ) :   1.3673 B(  2-C ,  7-C ) :   1.3688
B(  3-C ,  4-C ) :   1.4809 B(  3-C , 13-H ) :   0.9712 B(  4-C ,  5-C ) :   1.3874
B(  4-C , 14-H ) :   0.9666 B(  5-C ,  6-N ) :   1.5078 B(  5-C , 15-H ) :   0.9862
B(  6-N ,  7-C ) :   1.5207 B(  7-C , 16-H ) :   0.9953

FINAL SINGLE POINT ENERGY      -326.923989093314

DIPOLE MOMENT
-------------

Method             : SCF
Type of density    : Electron Density
Multiplicity       :   1
Irrep              :   0
Energy             :  -326.9337815274136005 Eh
Relativity type    :
Basis              : AO
                                X                 Y                 Z
Electronic contribution:     -7.476688944      -0.097972001       0.050337498
Nuclear contribution   :      8.037342433       0.933064676      -0.210050540
                        -----------------------------------------
Total Dipole Moment    :      0.560653489       0.835092674      -0.159713042
                        -----------------------------------------
Magnitude (a.u.)       :      1.018440163
Magnitude (Debye)      :      2.588669169

Rotational constants in cm-1:             0.163477             0.050218             0.038973
Rotational constants in MHz :          4900.928475          1505.495002          1168.383555

                             ****ORCA TERMINATED NORMALLY****
TOTAL RUN TIME: 0 days 0 hours 2 minutes 12 seconds 132 msec
