                         Program Version 6.0.0  -   RELEASE  -
|  1> ! wb97x-v def2-tzvp def2/J RIJCOSX DEFGRID2 scfconv7 GCP(DFT/TZ) printgap
|  2> %output
|  3>     printlevel normal
|  4> end
|  5> %cpcm
|  6>     smd true
|  7>     smdsolvent "water"
|  8> end
|  9> * xyz 0 1
| 10> C 2.844441081635316 -0.769162985852056 0.1375934407659236
| 11> C 1.987985219773852 0.4650717638424865 -0.11652168301662924
| 12> C 0.4950049243004104 0.25541503436019003 -0.05840525422481019
| 13> C -0.3705192736461247 1.337728793042722 -0.24481593998615347
| 14> C -1.7417656624282953 1.139231596234453 -0.19151723196599613
| 15> C -2.220444716045622 -0.14450771300249146 0.04875594128585599
| 16> N -1.4193804046985419 -1.2008177822511354 0.23145915235944123
| 17> C -0.09312284455775607 -0.9870913750767624 0.17572742235224537
| 18> H 2.657376398293466 -1.1917540688692716 1.130211278680543
| 19> H 3.903837094811892 -0.5034315491112474 0.08194627837297465
| 20> H 2.6574917690998716 -1.551291136046074 -0.6053864079337301
| 21> H 2.232687682684729 0.8849486714033208 -1.1006263014563828
| 22> H 2.2472510472299603 1.2473136744721751 0.6080789936405543
| 23> H 0.03636496480314633 2.328679709385959 -0.42980199843939526
| 24> H -2.4337377078804505 1.9628833842618525 -0.3327480690898839
| 25> H -3.29099026800009 -0.33172279265738996 0.0960975303220639
| 26> H 0.5275260163414864 -1.8656743060852756 0.32900291407325133
| 27> *
| 28>
| 29>                          ****END OF INPUT****

CARTESIAN COORDINATES (ANGSTROEM)
---------------------------------
  C      2.844441   -0.769163    0.137593
  C      1.987985    0.465072   -0.116522
  C      0.495005    0.255415   -0.058405
  C     -0.370519    1.337729   -0.244816
  C     -1.741766    1.139232   -0.191517
  C     -2.220445   -0.144508    0.048756
  N     -1.419380   -1.200818    0.231459
  C     -0.093123   -0.987091    0.175727
  H      2.657376   -1.191754    1.130211
  H      3.903837   -0.503432    0.081946
  H      2.657492   -1.551291   -0.605386
  H      2.232688    0.884949   -1.100626
  H      2.247251    1.247314    0.608079
  H      0.036365    2.328680   -0.429802
  H     -2.433738    1.962883   -0.332748
  H     -3.290990   -0.331723    0.096098
  H      0.527526   -1.865674    0.329003

 Total Charge           Charge          ....    0
 Multiplicity           Mult            ....    1
 Number of Electrons    NEL             ....   58
 Basis Dimension        Dim             ....  302

ORBITAL ENERGIES
----------------

  NO   OCC          E(Eh)            E(eV)
   0   2.0000     -16.527739      -449.7426
   1   2.0000     -12.078550      -328.6741
   2   2.0000     -12.076820      -328.6270
   3   2.0000     -12.062200      -328.2291
   4   2.0000     -12.060198      -328.1747
   5   2.0000     -12.052426      -327.9632
   6   2.0000     -12.044431      -327.7456
   7   2.0000     -12.029090      -327.3282
   8   2.0000      -1.517202       -41.2852
   9   2.0000      -1.349858       -36.7315
  10   2.0000      -1.305469       -35.5236
  11   2.0000      -1.248491       -33.9732
  12   2.0000      -1.158444       -31.5229
  13   2.0000      -1.135547       -30.8998
  14   2.0000      -1.087652       -29.5965
  15   2.0000      -0.992202       -26.9992
  16   2.0000      -0.969641       -26.3853
  17   2.0000      -0.910594       -24.7785
  18   2.0000      -0.883622       -24.0446
  19   2.0000      -0.868710       -23.6388
  20   2.0000      -0.865921       -23.5629
  21   2.0000      -0.841105       -22.8876
  22   2.0000      -0.827912       -22.5286
  23   2.0000      -0.814393       -22.1608
  24   2.0000      -0.789185       -21.4748
  25   2.0000      -0.771080       -20.9822
  26   2.0000      -0.759406       -20.6645
  27   2.0000      -0.689834       -18.7713
  28   2.0000      -0.642084       -17.4720
  29   0.0000      -0.289409        -7.8752
  30   0.0000      -0.240882        -6.5547
  31   0.0000      -0.092457        -2.5159
  32   0.0000      -0.046736        -1.2718
  33   0.0000      -0.035068        -0.9543

MULLIKEN ATOMIC CHARGES
-----------------------
   0 C :   -0.409697
   1 C :   -0.137133
   2 C :    0.072818
   3 C :   -0.228757
   4 C :   -0.130229
   5 C :   -0.069316
   6 N :   -0.292124
   7 C :   -0.118008
   8 H :    0.130828
   9 H :    0.139285
  10 H :    0.130594
  11 H :    0.124775
  12 H :    0.125368
  13 H :    0.168477
  14 H :    0.167989
  15 H :    0.159409
  16 H :    0.165721
Sum of atomic charges:   -0.0000000

LOEWDIN ATOMIC CHARGES
----------------------
   0 C :   -0.304549
   1 C :   -0.239828
   2 C :   -0.154164
   3 C :   -0.083993
   4 C :   -0.152657
   5 C :   -0.219308
   6 N :    0.074672
   7 C :   -0.187362
   8 H :    0.121786
   9 H :    0.122509
  10 H :    0.121593
  11 H :    0.149950
  12 H :    0.149896
  13 H :    0.159449
  14 H :    0.154870
  15 H :    0.141458
  16 H :    0.145679

  Mayer bond orders larger than 0.100000
B(  0-C ,  1-C ) :   0.9899 B(  0-C ,  8-H ) :   0.9769 B(  0-C ,  9-H ) :   0.9772
B(  0-C , 10-H ) :   0.9761 B(  1-C ,  2-C ) :   0.9509 B(  1-C , 11-H ) :   0.9575
B(  1-C , 12-H ) :   0.9617 B(  2-C ,  3-C ) :   1.3535 B(  2-C ,  7-C ) :   1.3909
B(  3-C ,  4-C ) :   1.4686 B(  3-C , 13-H ) :   0.9726 B(  4-C ,  5-C ) :   1.4072
B(  4-C , 14-H ) :   0.9630 B(  5-C ,  6-N ) :   1.4951 B(  5-C , 15-H ) :   0.9676
B(  6-N ,  7-C ) :   1.5026 B(  7-C , 16-H ) :   0.9733

FINAL SINGLE POINT ENERGY      -326.931241080732

DIPOLE MOMENT
-------------

Method             : SCF
Type of density    : Electron Density
Multiplicity       :   1
Irrep              :   0
Energy             :  -326.9410335148322702 Eh
Relativity type    :
Basis              : AO
                                X                 Y                 Z
Electronic contribution:     -7.269961915       0.310723160      -0.028109318
Nuclear contribution   :      8.037342433       0.933064676      -0.210050540
                        -----------------------------------------
Total Dipole Moment    :      0.767380518       1.243787836      -0.238159858
                        -----------------------------------------
Magnitude (a.u.)       :      1.480743448
Magnitude (Debye)      :      3.763750735

Rotational constants in cm-1:             0.163477             0.050218             0.038973
Rotational constants in MHz :          4900.928475          1505.495002          1168.383555

                             ****ORCA TERMINATED NORMALLY****
TOTAL RUN TIME: 0 days 0 hours 2 minutes 17 seconds 984 msec
