                         Program Version 6.0.0  -   RELEASE  -
|  1> ! wb97x-v def2-tzvp def2/J RIJCOSX DEFGRID2 scfconv7 GCP(DFT/TZ) printgap
|  2> %output
|  3>     printlevel normal
|  4> end
|  5> * xyz 0 1
|  6> C -2.666469656921976 0.6147597391022446 0.76079306880993
|  7> C -1.8516630968524164 0.6250373570694009 -0.5399575900709962
|  8> C -0.3826557417808834 0.3909478281639955 -0.29798388820823685
|  9> C 0.5077624040070156 1.4652214532806813 -0.21732544371027432
| 10> C 1.8612011992332487 1.2825139961897436 0.05325784055205199
| 11> C 2.351386617642363 -0.006865811197914533 0.24776699819247897
| 12> C 1.491881323762439 -1.0968897376256852 0.1722028146406616
| 13> C 0.13847759915685193 -0.8969313228901937 -0.09490877291395233
| 14> O -0.6493031912872617 -2.0298596654517667 -0.14962900152514727
| 15> H -2.3260645739363643 1.410881806226576 1.4303305277136995
| 16> H -2.5604928218103375 -0.33839485176992157 1.2899845633463785
| 17> H -3.7294309023435614 0.7714167217815194 0.5529602372783512
| 18> H -1.971061731625715 1.59374996628053 -1.0347587118841988
| 19> H -2.2555540800352505 -0.12208481892104664 -1.236365154819515
| 20> H 0.1188466195268474 2.468366738236374 -0.3728952461890625
| 21> H 2.5264776482397404 2.1379264014224426 0.10708657139429807
| 22> H 3.4039457563099402 -0.1691487547574699 0.45759750569935576
| 23> H 1.8564272311245817 -2.1088648109691674 0.3184764728789271
| 24> H -1.5614384647518906 -1.7825700089311138 -0.3525903023469891
| 25> *
| 26>
| 27>                          ****END OF INPUT****

CARTESIAN COORDINATES (ANGSTROEM)
---------------------------------
  C     -2.666470    0.614760    0.760793
  C     -1.851663    0.625037   -0.539958
  C     -0.382656    0.390948   -0.297984
  C      0.507762    1.465221   -0.217325
  C      1.861201    1.282514    0.053258
  C      2.351387   -0.006866    0.247767
  C      1.491881   -1.096890    0.172203
  C      0.138478   -0.896931   -0.094909
  O     -0.649303   -2.029860   -0.149629
  H     -2.326065    1.410882    1.430331
  H     -2.560493   -0.338395    1.289985
  H     -3.729431    0.771417    0.552960
  H     -1.971062    1.593750   -1.034759
  H     -2.255554   -0.122085   -1.236365
  H      0.118847    2.468367   -0.372895
  H      2.526478    2.137926    0.107087
  H      3.403946   -0.169149    0.457598
  H      1.856427   -2.108865    0.318476
  H     -1.561438   -1.782570   -0.352590

 Total Charge           Charge          ....    0
 Multiplicity           Mult            ....    1
 Number of Electrons    NEL             ....   66
 Basis Dimension        Dim             ....  339

ORBITAL ENERGIES
----------------

  NO   OCC          E(Eh)            E(eV)
   0   2.0000     -21.701190      -590.5194
   1   2.0000     -12.110318      -329.5385
   2   2.0000     -12.063011      -328.2512
   3   2.0000     -12.057298      -328.0958
   4   2.0000     -12.051428      -327.9360
   5   2.0000     -12.050415      -327.9085
   6   2.0000     -12.047533      -327.8300
   7   2.0000     -12.044106      -327.7368
   8   2.0000     -12.042650      -327.6972
   9   2.0000      -1.713146       -46.6171
  10   2.0000      -1.385793       -37.7094
  11   2.0000      -1.310703       -35.6661
  12   2.0000      -1.277144       -34.7529
  13   2.0000      -1.246473       -33.9183
  14   2.0000      -1.158652       -31.5285
  15   2.0000      -1.124146       -30.5896
  16   2.0000      -1.101473       -29.9726
  17   2.0000      -1.049436       -28.5566
  18   2.0000      -1.001118       -27.2418
  19   2.0000      -0.944959       -25.7136
  20   2.0000      -0.943060       -25.6620
  21   2.0000      -0.939271       -25.5589
  22   2.0000      -0.900442       -24.5023
  23   2.0000      -0.879889       -23.9430
  24   2.0000      -0.874300       -23.7909
  25   2.0000      -0.850625       -23.1467
  26   2.0000      -0.831852       -22.6358
  27   2.0000      -0.816952       -22.2304
  28   2.0000      -0.795259       -21.6401
  29   2.0000      -0.781710       -21.2714
  30   2.0000      -0.761301       -20.7161
  31   2.0000      -0.638266       -17.3681
  32   2.0000      -0.633050       -17.2262
  33   0.0000      -0.245779        -6.6880
  34   0.0000      -0.238902        -6.5009
  35   0.0000      -0.150225        -4.0878
  36   0.0000      -0.080247        -2.1836
  37   0.0000      -0.069627        -1.8946

MULLIKEN ATOMIC CHARGES
-----------------------
   0 C :   -0.322114
   1 C :   -0.298057
   2 C :    0.149159
   3 C :   -0.198728
   4 C :   -0.135581
   5 C :   -0.101139
   6 C :   -0.219610
   7 C :    0.163875
   8 O :   -0.384364
   9 H :    0.119619
  10 H :    0.111623
  11 H :    0.116256
  12 H :    0.115176
  13 H :    0.106445
  14 H :    0.113709
  15 H :    0.113909
  16 H :    0.116288
  17 H :    0.120189
  18 H :    0.313343
Sum of atomic charges:    0.0000000

LOEWDIN ATOMIC CHARGES
----------------------
   0 C :   -0.296188
   1 C :   -0.250813
   2 C :   -0.144202
   3 C :   -0.113257
   4 C :   -0.158907
   5 C :   -0.139619
   6 C :   -0.121787
   7 C :   -0.225623
   8 O :    0.067408
   9 H :    0.121809
  10 H :    0.117149
  11 H :    0.116453
  12 H :    0.143081
  13 H :    0.131350
  14 H :    0.144437
  15 H :    0.139875
  16 H :    0.141944
  17 H :    0.147396
  18 H :    0.179494

  Mayer bond orders larger than 0.100000
B(  0-C ,  1-C ) :   0.9802 B(  0-C ,  9-H ) :   0.9774 B(  0-C , 10-H ) :   0.9749
B(  0-C , 11-H ) :   0.9805 B(  1-C ,  2-C ) :   0.8659 B(  1-C , 12-H ) :   0.9879
B(  1-C , 13-H ) :   0.9934 B(  2-C ,  3-C ) :   1.3622 B(  2-C ,  7-C ) :   1.3062
B(  3-C ,  4-C ) :   1.4563 B(  3-C , 14-H ) :   0.9656 B(  4-C ,  5-C ) :   1.4231
B(  4-C , 15-H ) :   0.9765 B(  5-C ,  6-C ) :   1.4410 B(  5-C , 16-H ) :   0.9758
B(  6-C ,  7-C ) :   1.4431 B(  6-C , 17-H ) :   0.9724 B(  7-C ,  8-O ) :   1.1560
B(  8-O , 18-H ) :   0.8843

FINAL SINGLE POINT ENERGY      -386.118410646287

DIPOLE MOMENT
-------------

Method             : SCF
Type of density    : Electron Density
Multiplicity       :   1
Irrep              :   0
Energy             :  -386.1296742129874247 Eh
Relativity type    :
Basis              : AO
                                X                 Y                 Z
Electronic contribution:      5.606695938      -3.170212472      -1.194177520
Nuclear contribution   :     -6.142844526       3.594376746       1.102657054
                        -----------------------------------------
Total Dipole Moment    :     -0.536148588       0.424164274      -0.091520465
                        -----------------------------------------
Magnitude (a.u.)       :      0.689743891
Magnitude (Debye)      :      1.753189642

Rotational constants in cm-1:             0.088115             0.047713             0.033531
Rotational constants in MHz :          2641.628899          1430.398177          1005.223755

                             ****ORCA TERMINATED NORMALLY****
TOTAL RUN TIME: 0 days 0 hours 3 minutes 10 seconds 987 msec
