                         Program Version 6.0.0  -   RELEASE  -
|  1> ! wb97x-v def2-tzvp def2/J RIJCOSX DEFGRID2 scfconv7 GCP(DFT/TZ) printgap
|  2> %output
|  3>     printlevel normal
|  4> end
|  5> %cpcm
|  6>     smd true
|  7>     smdsolvent "water"
|  8> end
|  9> * xyz 0 1
| 10> C -2.666469656921976 0.6147597391022446 0.76079306880993
| 11> C -1.8516630968524164 0.6250373570694009 -0.5399575900709962
| 12> C -0.3826557417808834 0.3909478281639955 -0.29798388820823685
| 13> C 0.5077624040070156 1.4652214532806813 -0.21732544371027432
| 14> C 1.8612011992332487 1.2825139961897436 0.05325784055205199
| 15> C 2.351386617642363 -0.006865811197914533 0.24776699819247897
| 16> C 1.491881323762439 -1.0968897376256852 0.1722028146406616
| 17> C 0.13847759915685193 -0.8969313228901937 -0.09490877291395233
| 18> O -0.6493031912872617 -2.0298596654517667 -0.14962900152514727
| 19> H -2.3260645739363643 1.410881806226576 1.4303305277136995
| 20> H -2.5604928218103375 -0.33839485176992157 1.2899845633463785
| 21> H -3.7294309023435614 0.7714167217815194 0.5529602372783512
| 22> H -1.971061731625715 1.59374996628053 -1.0347587118841988
| 23> H -2.2555540800352505 -0.12208481892104664 -1.236365154819515
| 24> H 0.1188466195268474 2.468366738236374 -0.3728952461890625
| 25> H 2.5264776482397404 2.1379264014224426 0.10708657139429807
| 26> H 3.4039457563099402 -0.1691487547574699 0.45759750569935576
| 27> H 1.8564272311245817 -2.1088648109691674 0.3184764728789271
| 28> H -1.5614384647518906 -1.7825700089311138 -0.3525903023469891
| 29> *
| 30>
| 31>                          ****END OF INPUT****

CARTESIAN COORDINATES (ANGSTROEM)
---------------------------------
  C     -2.666470    0.614760    0.760793
  C     -1.851663    0.625037   -0.539958
  C     -0.382656    0.390948   -0.297984
  C      0.507762    1.465221   -0.217325
  C      1.861201    1.282514    0.053258
  C      2.351387   -0.006866    0.247767
  C      1.491881   -1.096890    0.172203
  C      0.138478   -0.896931   -0.094909
  O     -0.649303   -2.029860   -0.149629
  H     -2.326065    1.410882    1.430331
  H     -2.560493   -0.338395    1.289985
  H     -3.729431    0.771417    0.552960
  H     -1.971062    1.593750   -1.034759
  H     -2.255554   -0.122085   -1.236365
  H      0.118847    2.468367   -0.372895
  H      2.526478    2.137926    0.107087
  H      3.403946   -0.169149    0.457598
  H      1.856427   -2.108865    0.318476
  H     -1.561438   -1.782570   -0.352590

 Total Charge           Charge          ....    0
 Multiplicity           Mult            ....    1
 Number of Electrons    NEL             ....   66
 Basis Dimension        Dim             ....  339

ORBITAL ENERGIES
----------------

  NO   OCC          E(Eh)            E(eV)
   0   2.0000     -21.700610      -590.5036
   1   2.0000     -12.110730      -329.5497
   2   2.0000     -12.055476      -328.0462
   3   2.0000     -12.049598      -327.8862
   4   2.0000     -12.048536      -327.8573
   5   2.0000     -12.045910      -327.7859
   6   2.0000     -12.044622      -327.7508
   7   2.0000     -12.041567      -327.6677
   8   2.0000     -12.031064      -327.3819
   9   2.0000      -1.713044       -46.6143
  10   2.0000      -1.385693       -37.7066
  11   2.0000      -1.303998       -35.4836
  12   2.0000      -1.277591       -34.7650
  13   2.0000      -1.237714       -33.6799
  14   2.0000      -1.155027       -31.4299
  15   2.0000      -1.119984       -30.4763
  16   2.0000      -1.094886       -29.7934
  17   2.0000      -1.046152       -28.4672
  18   2.0000      -1.003085       -27.2953
  19   2.0000      -0.947105       -25.7720
  20   2.0000      -0.941815       -25.6281
  21   2.0000      -0.936281       -25.4775
  22   2.0000      -0.894294       -24.3350
  23   2.0000      -0.875304       -23.8182
  24   2.0000      -0.858405       -23.3584
  25   2.0000      -0.839920       -22.8554
  26   2.0000      -0.824279       -22.4298
  27   2.0000      -0.811654       -22.0862
  28   2.0000      -0.782408       -21.2904
  29   2.0000      -0.765460       -20.8292
  30   2.0000      -0.761274       -20.7153
  31   2.0000      -0.639013       -17.3884
  32   2.0000      -0.634763       -17.2728
  33   0.0000      -0.246384        -6.7045
  34   0.0000      -0.240039        -6.5318
  35   0.0000      -0.147498        -4.0136
  36   0.0000      -0.075514        -2.0548
  37   0.0000      -0.046643        -1.2692

MULLIKEN ATOMIC CHARGES
-----------------------
   0 C :   -0.383778
   1 C :   -0.248687
   2 C :    0.076449
   3 C :   -0.232219
   4 C :   -0.186128
   5 C :   -0.156310
   6 C :   -0.272983
   7 C :    0.200505
   8 O :   -0.457686
   9 H :    0.128633
  10 H :    0.128753
  11 H :    0.132245
  12 H :    0.131919
  13 H :    0.133319
  14 H :    0.160755
  15 H :    0.158324
  16 H :    0.160200
  17 H :    0.153550
  18 H :    0.373137
Sum of atomic charges:   -0.0000000

LOEWDIN ATOMIC CHARGES
----------------------
   0 C :   -0.299339
   1 C :   -0.243767
   2 C :   -0.144800
   3 C :   -0.118167
   4 C :   -0.171902
   5 C :   -0.153273
   6 C :   -0.138512
   7 C :   -0.236895
   8 O :    0.043393
   9 H :    0.121066
  10 H :    0.120316
  11 H :    0.120445
  12 H :    0.147719
  13 H :    0.142638
  14 H :    0.155634
  15 H :    0.148674
  16 H :    0.151139
  17 H :    0.153685
  18 H :    0.201944

  Mayer bond orders larger than 0.100000
B(  0-C ,  1-C ) :   0.9675 B(  0-C ,  9-H ) :   0.9773 B(  0-C , 10-H ) :   0.9754
B(  0-C , 11-H ) :   0.9776 B(  1-C ,  2-C ) :   0.9101 B(  1-C , 12-H ) :   0.9783
B(  1-C , 13-H ) :   0.9774 B(  2-C ,  3-C ) :   1.3436 B(  2-C ,  7-C ) :   1.2997
B(  3-C ,  4-C ) :   1.4242 B(  3-C , 14-H ) :   0.9684 B(  4-C ,  5-C ) :   1.4038
B(  4-C , 15-H ) :   0.9799 B(  5-C ,  6-C ) :   1.4269 B(  5-C , 16-H ) :   0.9772
B(  6-C ,  7-C ) :   1.4085 B(  6-C , 17-H ) :   0.9825 B(  7-C ,  8-O ) :   1.1211
B(  8-O , 18-H ) :   0.8473

FINAL SINGLE POINT ENERGY      -386.126988335322

DIPOLE MOMENT
-------------

Method             : SCF
Type of density    : Electron Density
Multiplicity       :   1
Irrep              :   0
Energy             :  -386.1382519020219775 Eh
Relativity type    :
Basis              : AO
                                X                 Y                 Z
Electronic contribution:      5.334784953      -3.017665686      -1.284146450
Nuclear contribution   :     -6.142844526       3.594376746       1.102657054
                        -----------------------------------------
Total Dipole Moment    :     -0.808059573       0.576711060      -0.181489396
                        -----------------------------------------
Magnitude (a.u.)       :      1.009204796
Magnitude (Debye)      :      2.565194732

Rotational constants in cm-1:             0.088115             0.047713             0.033531
Rotational constants in MHz :          2641.628899          1430.398177          1005.223755

                             ****ORCA TERMINATED NORMALLY****
TOTAL RUN TIME: 0 days 0 hours 3 minutes 17 seconds 44 msec
