                         Program Version 6.0.0  -   RELEASE  -
|  1> ! wb97x-v def2-tzvp def2/J RIJCOSX DEFGRID2 scfconv7 GCP(DFT/TZ) printgap
|  2> %output
|  3>     printlevel normal
|  4> end
|  5> * xyz 0 1
|  6> C -1.9647103811079238 -0.14034445218001967 -0.03242372686295243
|  7> C -0.6083357607017666 0.5569256099958155 -0.08387670362890225
|  8> C 0.546310013288007 -0.42647395388113624 0.036222839114623644
|  9> N 1.8453435106363996 0.27324133594818795 -0.002791263482364187
| 10> H -2.062651132395373 -0.8685630026305359 -0.8455765103162985
| 11> H -2.097418039753995 -0.6768430026333166 0.9137221051883919
| 12> H -2.7846390102253755 0.5782841526250981 -0.12667314831883666
| 13> H -0.538446312682762 1.291225478723114 0.7303764137663722
| 14> H -0.5093691977501906 1.115688865158064 -1.0229521076838919
| 15> H 0.4101926177832527 -1.022146888406664 0.9545805038853321
| 16> H 0.5093561082725956 -1.1315755702490027 -0.8033691363667235
| 17> H 2.58453169740903 -0.413403939340301 0.11618550990635587
| 18> H 1.9023842953768313 0.8673177494448449 0.8208188582382941
| 19> *
| 20>
| 21>                          ****END OF INPUT****

CARTESIAN COORDINATES (ANGSTROEM)
---------------------------------
  C     -1.964710   -0.140344   -0.032424
  C     -0.608336    0.556926   -0.083877
  C      0.546310   -0.426474    0.036223
  N      1.845344    0.273241   -0.002791
  H     -2.062651   -0.868563   -0.845577
  H     -2.097418   -0.676843    0.913722
  H     -2.784639    0.578284   -0.126673
  H     -0.538446    1.291225    0.730376
  H     -0.509369    1.115689   -1.022952
  H      0.410193   -1.022147    0.954581
  H      0.509356   -1.131576   -0.803369
  H      2.584532   -0.413404    0.116186
  H      1.902384    0.867318    0.820819

 Total Charge           Charge          ....    0
 Multiplicity           Mult            ....    1
 Number of Electrons    NEL             ....   34
 Basis Dimension        Dim             ....  178

ORBITAL ENERGIES
----------------

  NO   OCC          E(Eh)            E(eV)
   0   2.0000     -16.503208      -449.0751
   1   2.0000     -12.063643      -328.2684
   2   2.0000     -12.038142      -327.5745
   3   2.0000     -12.033873      -327.4583
   4   2.0000      -1.439299       -39.1653
   5   2.0000      -1.276824       -34.7442
   6   2.0000      -1.161488       -31.6057
   7   2.0000      -1.059559       -28.8321
   8   2.0000      -0.953432       -25.9442
   9   2.0000      -0.923469       -25.1289
  10   2.0000      -0.883630       -24.0448
  11   2.0000      -0.844463       -22.9790
  12   2.0000      -0.816370       -22.2146
  13   2.0000      -0.813798       -22.1446
  14   2.0000      -0.773632       -21.0516
  15   2.0000      -0.755424       -20.5561
  16   2.0000      -0.713627       -19.4188
  17   0.0000      -0.074360        -2.0234
  18   0.0000      -0.027841        -0.7576
  19   0.0000      -0.002025        -0.0551
  20   0.0000       0.012267         0.3338
  21   0.0000       0.021027         0.5722

MULLIKEN ATOMIC CHARGES
-----------------------
   0 C :   -0.341683
   1 C :   -0.145226
   2 C :   -0.094161
   3 N :   -0.489081
   4 H :    0.104865
   5 H :    0.101685
   6 H :    0.115020
   7 H :    0.075747
   8 H :    0.099212
   9 H :    0.075630
  10 H :    0.088627
  11 H :    0.205292
  12 H :    0.204074
Sum of atomic charges:    0.0000000

LOEWDIN ATOMIC CHARGES
----------------------
   0 C :   -0.308931
   1 C :   -0.298518
   2 C :   -0.337466
   3 N :   -0.183166
   4 H :    0.116375
   5 H :    0.114742
   6 H :    0.116453
   7 H :    0.127304
   8 H :    0.133330
   9 H :    0.109293
  10 H :    0.123575
  11 H :    0.142810
  12 H :    0.144198

  Mayer bond orders larger than 0.100000
B(  0-C ,  1-C ) :   0.9841 B(  0-C ,  4-H ) :   0.9803 B(  0-C ,  5-H ) :   0.9775
B(  0-C ,  6-H ) :   0.9833 B(  1-C ,  2-C ) :   0.9938 B(  1-C ,  7-H ) :   0.9708
B(  1-C ,  8-H ) :   0.9727 B(  2-C ,  3-N ) :   1.0197 B(  2-C ,  9-H ) :   0.9786
B(  2-C , 10-H ) :   0.9656 B(  3-N , 11-H ) :   0.9461 B(  3-N , 12-H ) :   0.9437

FINAL SINGLE POINT ENERGY      -174.490143625339

DIPOLE MOMENT
-------------

Method             : SCF
Type of density    : Electron Density
Multiplicity       :   1
Irrep              :   0
Energy             :  -174.4991729666393780 Eh
Relativity type    :
Basis              : AO
                                X                 Y                 Z
Electronic contribution:      2.218093625       0.468597659      -0.256223837
Nuclear contribution   :     -2.258483752      -0.735039043       0.728388743
                        -----------------------------------------
Total Dipole Moment    :     -0.040390127      -0.266441384       0.472164905
                        -----------------------------------------
Magnitude (a.u.)       :      0.543656207
Magnitude (Debye)      :      1.381864260

Rotational constants in cm-1:             0.839130             0.124307             0.116372
Rotational constants in MHz :         25156.481407          3726.635254          3488.752061

                             ****ORCA TERMINATED NORMALLY****
TOTAL RUN TIME: 0 days 0 hours 0 minutes 47 seconds 56 msec
