                         Program Version 6.0.0  -   RELEASE  -
|  1> ! wb97x-v def2-tzvp def2/J RIJCOSX DEFGRID2 scfconv7 GCP(DFT/TZ) printgap
|  2> %output
|  3>     printlevel normal
|  4> end
|  5> %cpcm
|  6>     smd true
|  7>     smdsolvent "water"
|  8> end
|  9> * xyz 0 1
| 10> C -1.9647103811079238 -0.14034445218001967 -0.03242372686295243
| 11> C -0.6083357607017666 0.5569256099958155 -0.08387670362890225
| 12> C 0.546310013288007 -0.42647395388113624 0.036222839114623644
| 13> N 1.8453435106363996 0.27324133594818795 -0.002791263482364187
| 14> H -2.062651132395373 -0.8685630026305359 -0.8455765103162985
| 15> H -2.097418039753995 -0.6768430026333166 0.9137221051883919
| 16> H -2.7846390102253755 0.5782841526250981 -0.12667314831883666
| 17> H -0.538446312682762 1.291225478723114 0.7303764137663722
| 18> H -0.5093691977501906 1.115688865158064 -1.0229521076838919
| 19> H 0.4101926177832527 -1.022146888406664 0.9545805038853321
| 20> H 0.5093561082725956 -1.1315755702490027 -0.8033691363667235
| 21> H 2.58453169740903 -0.413403939340301 0.11618550990635587
| 22> H 1.9023842953768313 0.8673177494448449 0.8208188582382941
| 23> *
| 24>
| 25>                          ****END OF INPUT****

CARTESIAN COORDINATES (ANGSTROEM)
---------------------------------
  C     -1.964710   -0.140344   -0.032424
  C     -0.608336    0.556926   -0.083877
  C      0.546310   -0.426474    0.036223
  N      1.845344    0.273241   -0.002791
  H     -2.062651   -0.868563   -0.845577
  H     -2.097418   -0.676843    0.913722
  H     -2.784639    0.578284   -0.126673
  H     -0.538446    1.291225    0.730376
  H     -0.509369    1.115689   -1.022952
  H      0.410193   -1.022147    0.954581
  H      0.509356   -1.131576   -0.803369
  H      2.584532   -0.413404    0.116186
  H      1.902384    0.867318    0.820819

 Total Charge           Charge          ....    0
 Multiplicity           Mult            ....    1
 Number of Electrons    NEL             ....   34
 Basis Dimension        Dim             ....  178

ORBITAL ENERGIES
----------------

  NO   OCC          E(Eh)            E(eV)
   0   2.0000     -16.498290      -448.9413
   1   2.0000     -12.055328      -328.0421
   2   2.0000     -12.030899      -327.3774
   3   2.0000     -12.025387      -327.2274
   4   2.0000      -1.433375       -39.0041
   5   2.0000      -1.269414       -34.5425
   6   2.0000      -1.153956       -31.4007
   7   2.0000      -1.052388       -28.6369
   8   2.0000      -0.947253       -25.7761
   9   2.0000      -0.917279       -24.9604
  10   2.0000      -0.876083       -23.8394
  11   2.0000      -0.837086       -22.7783
  12   2.0000      -0.808838       -22.0096
  13   2.0000      -0.806622       -21.9493
  14   2.0000      -0.766555       -20.8590
  15   2.0000      -0.748164       -20.3586
  16   2.0000      -0.709859       -19.3162
  17   0.0000      -0.066830        -1.8185
  18   0.0000      -0.015398        -0.4190
  19   0.0000       0.007344         0.1998
  20   0.0000       0.023303         0.6341
  21   0.0000       0.029086         0.7915

MULLIKEN ATOMIC CHARGES
-----------------------
   0 C :   -0.394227
   1 C :   -0.152082
   2 C :   -0.108257
   3 N :   -0.593653
   4 H :    0.119520
   5 H :    0.119881
   6 H :    0.129387
   7 H :    0.098812
   8 H :    0.092248
   9 H :    0.092105
  10 H :    0.105768
  11 H :    0.245535
  12 H :    0.244964
Sum of atomic charges:    0.0000000

LOEWDIN ATOMIC CHARGES
----------------------
   0 C :   -0.314787
   1 C :   -0.303440
   2 C :   -0.337370
   3 N :   -0.211305
   4 H :    0.118662
   5 H :    0.118142
   6 H :    0.118384
   7 H :    0.131961
   8 H :    0.129501
   9 H :    0.115061
  10 H :    0.125712
  11 H :    0.153834
  12 H :    0.155647

  Mayer bond orders larger than 0.100000
B(  0-C ,  1-C ) :   0.9828 B(  0-C ,  4-H ) :   0.9777 B(  0-C ,  5-H ) :   0.9765
B(  0-C ,  6-H ) :   0.9797 B(  1-C ,  2-C ) :   0.9858 B(  1-C ,  7-H ) :   0.9707
B(  1-C ,  8-H ) :   0.9670 B(  2-C ,  3-N ) :   1.0073 B(  2-C ,  9-H ) :   0.9833
B(  2-C , 10-H ) :   0.9690 B(  3-N , 11-H ) :   0.9327 B(  3-N , 12-H ) :   0.9295

FINAL SINGLE POINT ENERGY      -174.496339542493

DIPOLE MOMENT
-------------

Method             : SCF
Type of density    : Electron Density
Multiplicity       :   1
Irrep              :   0
Energy             :  -174.5053688837928689 Eh
Relativity type    :
Basis              : AO
                                X                 Y                 Z
Electronic contribution:      2.204407468       0.364218593      -0.070985687
Nuclear contribution   :     -2.258483752      -0.735039043       0.728388743
                        -----------------------------------------
Total Dipole Moment    :     -0.054076284      -0.370820451       0.657403056
                        -----------------------------------------
Magnitude (a.u.)       :      0.756710532
Magnitude (Debye)      :      1.923405316

Rotational constants in cm-1:             0.839130             0.124307             0.116372
Rotational constants in MHz :         25156.481407          3726.635254          3488.752061

                             ****ORCA TERMINATED NORMALLY****
TOTAL RUN TIME: 0 days 0 hours 0 minutes 49 seconds 448 msec
