                         Program Version 6.0.0  -   RELEASE  -
|  1> ! pbe def2-sv(p) def2/J RI DEFGRID1 loosescf d4 GCP(DFT/SV(P)) printgap
|  2> %output
|  3>     printlevel normal
|  4> end
|  5> * xyz 0 1
|  6> C -1.9495715491 0.4986926295 0.0641527175
|  7> C -0.9010231016 -0.5900079916 -0.1222987486
|  8> C 0.5507935734 -0.163678443 -0.0238816085
|  9> O 1.4574615791 -0.9809496166 -0.1857818204
| 10> N 0.8037469584 1.1205039054 0.244059419
| 11> H -2.938705641 0.0602109062 -0.04113151
| 12> H -1.8858382146 0.9399523418 1.0556665826
| 13> H -1.8476233373 1.274595421 -0.6904802206
| 14> H -1.0153137987 -1.0635731436 -1.1002870878
| 15> H -1.0388945068 -1.3799755296 0.6199450196
| 16> H 0.0644542264 1.7875880963 0.3768338823
| 17> H 1.7626469849 1.4197810351 0.3143489027
| 18> *
| 19>
| 20>                          ****END OF INPUT****

CARTESIAN COORDINATES (ANGSTROEM)
---------------------------------
  C     -1.949572    0.498693    0.064153
  C     -0.901023   -0.590008   -0.122299
  C      0.550794   -0.163678   -0.023882
  O      1.457462   -0.980950   -0.185782
  N      0.803747    1.120504    0.244059
  H     -2.938706    0.060211   -0.041132
  H     -1.885838    0.939952    1.055667
  H     -1.847623    1.274595   -0.690480
  H     -1.015314   -1.063573   -1.100287
  H     -1.038895   -1.379976    0.619945
  H      0.064454    1.787588    0.376834
  H      1.762647    1.419781    0.314349

 Total Charge           Charge          ....    0
 Multiplicity           Mult            ....    1
 Number of Electrons    NEL             ....   40
 Basis Dimension        Dim             ....   84

ORBITAL ENERGIES
----------------

  NO   OCC          E(Eh)            E(eV)
   0   2.0000     -18.695296      -508.7249
   1   2.0000     -14.010182      -381.2364
   2   2.0000      -9.973174      -271.3838
   3   2.0000      -9.893253      -269.2091
   4   2.0000      -9.892163      -269.1794
   5   2.0000      -0.915986       -24.9252
   6   2.0000      -0.815789       -22.1987
   7   2.0000      -0.702575       -19.1180
   8   2.0000      -0.588553       -16.0153
   9   2.0000      -0.527724       -14.3601
  10   2.0000      -0.498421       -13.5627
  11   2.0000      -0.421742       -11.4762
  12   2.0000      -0.402185       -10.9440
  13   2.0000      -0.369133       -10.0446
  14   2.0000      -0.351366        -9.5612
  15   2.0000      -0.326574        -8.8865
  16   2.0000      -0.323049        -8.7906
  17   2.0000      -0.305163        -8.3039
  18   2.0000      -0.219952        -5.9852
  19   2.0000      -0.184591        -5.0230
  20   0.0000       0.006117         0.1665
  21   0.0000       0.021782         0.5927
  22   0.0000       0.063886         1.7384
  23   0.0000       0.074140         2.0174
  24   0.0000       0.090423         2.4605

MULLIKEN ATOMIC CHARGES
-----------------------
   0 C :   -0.313109
   1 C :   -0.201871
   2 C :    0.022753
   3 O :   -0.235337
   4 N :   -0.303892
   5 H :    0.113424
   6 H :    0.111221
   7 H :    0.111725
   8 H :    0.119614
   9 H :    0.120202
  10 H :    0.224969
  11 H :    0.230302
Sum of atomic charges:    0.0000000

LOEWDIN ATOMIC CHARGES
----------------------
   0 C :   -0.355274
   1 C :   -0.258220
   2 C :    0.006515
   3 O :   -0.222741
   4 N :   -0.288328
   5 H :    0.130510
   6 H :    0.118575
   7 H :    0.118957
   8 H :    0.142187
   9 H :    0.142407
  10 H :    0.230285
  11 H :    0.235128

  Mayer bond orders larger than 0.100000
B(  0-C ,  1-C ) :   1.1404 B(  0-C ,  5-H ) :   0.9401 B(  0-C ,  6-H ) :   0.9464
B(  0-C ,  7-H ) :   0.9476 B(  1-C ,  2-C ) :   0.9969 B(  1-C ,  8-H ) :   0.9081
B(  1-C ,  9-H ) :   0.9073 B(  2-C ,  3-O ) :   2.0794 B(  2-C ,  4-N ) :   1.3116
B(  4-N , 10-H ) :   0.8539 B(  4-N , 11-H ) :   0.8634

Dispersion correction           -0.007555119
FINAL SINGLE POINT ENERGY      -247.971607086803

DIPOLE MOMENT
-------------

Method             : SCF
Type of density    : Electron Density
Multiplicity       :   1
Irrep              :   0
Energy             :  -248.0178159925403634 Eh
Relativity type    :
Basis              : AO
                                X                 Y                 Z
Electronic contribution:      5.600469465      -1.642981987      -0.256553570
Nuclear contribution   :     -6.446632369       2.842310023       0.500408564
                        -----------------------------------------
Total Dipole Moment    :     -0.846162904       1.199328036       0.243854994
                        -----------------------------------------
Magnitude (a.u.)       :      1.487899410
Magnitude (Debye)      :      3.781939746

Rotational constants in cm-1:             0.318231             0.130038             0.095604
Rotational constants in MHz :          9540.321415          3898.446151          2866.126906

                             ****ORCA TERMINATED NORMALLY****
TOTAL RUN TIME: 0 days 0 hours 0 minutes 4 seconds 386 msec
