                         Program Version 6.0.0  -   RELEASE  -
|  1> ! r2scan-3c def2/J RI DEFGRID2 scfconv6 printgap
|  2> %output
|  3>     printlevel normal
|  4> end
|  5> * xyz 0 1
|  6> C -2.5554643956 -0.8909634717 0.3131637437
|  7> C -1.1209171758 -0.4453888424 0.6368829819
|  8> H -0.9821933877 -0.4095333102 1.7300070718
|  9> C -0.8241193839 0.9398347178 0.0414561414
| 10> H -1.0844225717 0.9248226478 -1.0228717115
| 11> C 0.6650755913 1.3000193431 0.1840114804
| 12> H 0.8985357511 1.4833645647 1.2474605521
| 13> C 1.5670360621 0.1585173864 -0.2900254992
| 14> H 1.4982242068 0.0856450319 -1.3838554818
| 15> C 1.1046063646 -1.1776871901 0.3197940883
| 16> H 1.284893786 -1.1370463228 1.4159098775
| 17> O -0.2598702572 -1.4252614375 0.0860999116
| 18> O 1.8364698131 -2.186305132 -0.2723902286
| 19> O 2.8803712712 0.4383050242 0.1173744276
| 20> O 0.9682885762 2.445194853 -0.5722013409
| 21> O -1.6267237233 1.942132154 0.6112426545
| 22> O -2.7520991424 -1.0717331257 -1.0632746211
| 23> H -3.2512123974 -0.1100521352 0.6240412896
| 24> H -2.7708437177 -1.8170349383 0.8599857208
| 25> H 1.4789617038 -3.0511141134 -0.0162698903
| 26> H 3.4728523688 -0.2356833678 -0.247921455
| 27> H 0.2854687121 3.1140157552 -0.4035714691
| 28> H -1.4692785333 1.9893752722 1.5664427451
| 29> H -2.1034800968 -1.7177422615 -1.3798960814
| 30> *
| 31>
| 32>                          ****END OF INPUT****

CARTESIAN COORDINATES (ANGSTROEM)
---------------------------------
  C     -2.555464   -0.890963    0.313164
  C     -1.120917   -0.445389    0.636883
  H     -0.982193   -0.409533    1.730007
  C     -0.824119    0.939835    0.041456
  H     -1.084423    0.924823   -1.022872
  C      0.665076    1.300019    0.184011
  H      0.898536    1.483365    1.247461
  C      1.567036    0.158517   -0.290025
  H      1.498224    0.085645   -1.383855
  C      1.104606   -1.177687    0.319794
  H      1.284894   -1.137046    1.415910
  O     -0.259870   -1.425261    0.086100
  O      1.836470   -2.186305   -0.272390
  O      2.880371    0.438305    0.117374
  O      0.968289    2.445195   -0.572201
  O     -1.626724    1.942132    0.611243
  O     -2.752099   -1.071733   -1.063275
  H     -3.251212   -0.110052    0.624041
  H     -2.770844   -1.817035    0.859986
  H      1.478962   -3.051114   -0.016270
  H      3.472852   -0.235683   -0.247921
  H      0.285469    3.114016   -0.403571
  H     -1.469279    1.989375    1.566443
  H     -2.103480   -1.717742   -1.379896

 Total Charge           Charge          ....    0
 Multiplicity           Mult            ....    1
 Number of Electrons    NEL             ....   96
 Basis Dimension        Dim             ....  318

ORBITAL ENERGIES
----------------

  NO   OCC          E(Eh)            E(eV)
   0   2.0000     -18.983156      -516.5579
   1   2.0000     -18.979796      -516.4665
   2   2.0000     -18.975384      -516.3464
   3   2.0000     -18.956597      -515.8352
   4   2.0000     -18.954623      -515.7815
   5   2.0000     -18.951810      -515.7050
   6   2.0000     -10.146445      -276.0988
   7   2.0000     -10.102726      -274.9091
   8   2.0000     -10.094195      -274.6770
   9   2.0000     -10.093305      -274.6528
  10   2.0000     -10.091677      -274.6085
  11   2.0000     -10.085972      -274.4533
  12   2.0000      -1.063679       -28.9442
  13   2.0000      -1.020202       -27.7611
  14   2.0000      -1.006903       -27.3992
  15   2.0000      -0.997351       -27.1393
  16   2.0000      -0.987549       -26.8726
  17   2.0000      -0.982343       -26.7309
  18   2.0000      -0.753614       -20.5069
  19   2.0000      -0.742010       -20.1911
  20   2.0000      -0.662871       -18.0376
  21   2.0000      -0.628670       -17.1070
  22   2.0000      -0.595311       -16.1992
  23   2.0000      -0.566237       -15.4081
  24   2.0000      -0.529274       -14.4023
  25   2.0000      -0.517383       -14.0787
  26   2.0000      -0.503390       -13.6979
  27   2.0000      -0.484590       -13.1864
  28   2.0000      -0.482982       -13.1426
  29   2.0000      -0.459942       -12.5157
  30   2.0000      -0.444784       -12.1032
  31   2.0000      -0.417850       -11.3703
  32   2.0000      -0.405670       -11.0388
  33   2.0000      -0.402652       -10.9567
  34   2.0000      -0.391160       -10.6440
  35   2.0000      -0.374868       -10.2007
  36   2.0000      -0.356259        -9.6943
  37   2.0000      -0.351485        -9.5644
  38   2.0000      -0.329184        -8.9576
  39   2.0000      -0.322644        -8.7796
  40   2.0000      -0.304232        -8.2786
  41   2.0000      -0.301167        -8.1952
  42   2.0000      -0.286701        -7.8015
  43   2.0000      -0.268791        -7.3142
  44   2.0000      -0.262741        -7.1495
  45   2.0000      -0.249080        -6.7778
  46   2.0000      -0.244722        -6.6592
  47   2.0000      -0.223073        -6.0701
  48   0.0000       0.030923         0.8415
  49   0.0000       0.039813         1.0834
  50   0.0000       0.049563         1.3487
  51   0.0000       0.067042         1.8243
  52   0.0000       0.078668         2.1407

MULLIKEN ATOMIC CHARGES
-----------------------
   0 C :   -0.222481
   1 C :    0.062674
   2 H :    0.165170
   3 C :   -0.170049
   4 H :    0.204046
   5 C :   -0.017165
   6 H :    0.160794
   7 C :   -0.007408
   8 H :    0.175814
   9 C :   -0.028101
  10 H :    0.138241
  11 O :   -0.227842
  12 O :   -0.400374
  13 O :   -0.413496
  14 O :   -0.412328
  15 O :   -0.417384
  16 O :   -0.422286
  17 H :    0.151299
  18 H :    0.139619
  19 H :    0.309439
  20 H :    0.310528
  21 H :    0.310357
  22 H :    0.300066
  23 H :    0.310866
Sum of atomic charges:   -0.0000000

LOEWDIN ATOMIC CHARGES
----------------------
   0 C :    0.041265
   1 C :    0.100887
   2 H :    0.179116
   3 C :    0.098925
   4 H :    0.212102
   5 C :    0.109613
   6 H :    0.181003
   7 C :    0.129014
   8 H :    0.192793
   9 C :    0.298620
  10 H :    0.179867
  11 O :   -0.692585
  12 O :   -0.500412
  13 O :   -0.553809
  14 O :   -0.562870
  15 O :   -0.578209
  16 O :   -0.587627
  17 H :    0.193295
  18 H :    0.164424
  19 H :    0.284888
  20 H :    0.280577
  21 H :    0.281254
  22 H :    0.272111
  23 H :    0.275758

  Mayer bond orders larger than 0.100000
B(  0-C ,  1-C ) :   0.9534 B(  0-C , 16-O ) :   1.0352 B(  0-C , 17-H ) :   0.9601
B(  0-C , 18-H ) :   0.9822 B(  1-C ,  2-H ) :   0.9215 B(  1-C ,  3-C ) :   0.8446
B(  1-C , 11-O ) :   0.7610 B(  1-C , 16-O ) :  -0.1223 B(  3-C ,  4-H ) :   0.9696
B(  3-C ,  5-C ) :   0.8548 B(  3-C , 15-O ) :   0.9982 B(  5-C ,  6-H ) :   0.9801
B(  5-C ,  7-C ) :   0.9288 B(  5-C , 14-O ) :   0.9037 B(  7-C ,  8-H ) :   0.9887
B(  7-C ,  9-C ) :   0.7823 B(  7-C , 13-O ) :   0.9394 B(  9-C , 10-H ) :   1.0103
B(  9-C , 11-O ) :   0.9307 B(  9-C , 12-O ) :   1.0561 B( 12-O , 19-H ) :   0.8795
B( 13-O , 20-H ) :   0.8837 B( 14-O , 21-H ) :   0.8733 B( 15-O , 22-H ) :   0.8843
B( 16-O , 23-H ) :   0.8744

Dispersion correction           -0.008053739
FINAL SINGLE POINT ENERGY      -687.074367476802

DIPOLE MOMENT
-------------

Method             : SCF
Type of density    : Electron Density
Multiplicity       :   1
Irrep              :   0
Energy             :  -687.0857532384108026 Eh
Relativity type    :
Basis              : AO
                                X                 Y                 Z
Electronic contribution:      2.441884305      -0.031148369      -1.710899336
Nuclear contribution   :     -2.557423660      -0.824403510       2.788428687
                        -----------------------------------------
Total Dipole Moment    :     -0.115539355      -0.855551880       1.077529352
                        -----------------------------------------
Magnitude (a.u.)       :      1.380720053
Magnitude (Debye)      :      3.509511470

Rotational constants in cm-1:             0.038916             0.027195             0.017840
Rotational constants in MHz :          1166.670935           815.275234           534.836307

                             ****ORCA TERMINATED NORMALLY****
TOTAL RUN TIME: 0 days 0 hours 0 minutes 48 seconds 719 msec
