                         Program Version 6.0.0  -   RELEASE  -
|  1> ! r2scan-3c def2/J RI DEFGRID2 scfconv6 printgap
|  2> %output
|  3>     printlevel normal
|  4> end
|  5> %cpcm
|  6>     smd true
|  7>     smdsolvent "water"
|  8> end
|  9> * xyz 0 1
| 10> C -2.5554643956 -0.8909634717 0.3131637437
| 11> C -1.1209171758 -0.4453888424 0.6368829819
| 12> H -0.9821933877 -0.4095333102 1.7300070718
| 13> C -0.8241193839 0.9398347178 0.0414561414
| 14> H -1.0844225717 0.9248226478 -1.0228717115
| 15> C 0.6650755913 1.3000193431 0.1840114804
| 16> H 0.8985357511 1.4833645647 1.2474605521
| 17> C 1.5670360621 0.1585173864 -0.2900254992
| 18> H 1.4982242068 0.0856450319 -1.3838554818
| 19> C 1.1046063646 -1.1776871901 0.3197940883
| 20> H 1.284893786 -1.1370463228 1.4159098775
| 21> O -0.2598702572 -1.4252614375 0.0860999116
| 22> O 1.8364698131 -2.186305132 -0.2723902286
| 23> O 2.8803712712 0.4383050242 0.1173744276
| 24> O 0.9682885762 2.445194853 -0.5722013409
| 25> O -1.6267237233 1.942132154 0.6112426545
| 26> O -2.7520991424 -1.0717331257 -1.0632746211
| 27> H -3.2512123974 -0.1100521352 0.6240412896
| 28> H -2.7708437177 -1.8170349383 0.8599857208
| 29> H 1.4789617038 -3.0511141134 -0.0162698903
| 30> H 3.4728523688 -0.2356833678 -0.247921455
| 31> H 0.2854687121 3.1140157552 -0.4035714691
| 32> H -1.4692785333 1.9893752722 1.5664427451
| 33> H -2.1034800968 -1.7177422615 -1.3798960814
| 34> *
| 35>
| 36>                          ****END OF INPUT****

CARTESIAN COORDINATES (ANGSTROEM)
---------------------------------
  C     -2.555464   -0.890963    0.313164
  C     -1.120917   -0.445389    0.636883
  H     -0.982193   -0.409533    1.730007
  C     -0.824119    0.939835    0.041456
  H     -1.084423    0.924823   -1.022872
  C      0.665076    1.300019    0.184011
  H      0.898536    1.483365    1.247461
  C      1.567036    0.158517   -0.290025
  H      1.498224    0.085645   -1.383855
  C      1.104606   -1.177687    0.319794
  H      1.284894   -1.137046    1.415910
  O     -0.259870   -1.425261    0.086100
  O      1.836470   -2.186305   -0.272390
  O      2.880371    0.438305    0.117374
  O      0.968289    2.445195   -0.572201
  O     -1.626724    1.942132    0.611243
  O     -2.752099   -1.071733   -1.063275
  H     -3.251212   -0.110052    0.624041
  H     -2.770844   -1.817035    0.859986
  H      1.478962   -3.051114   -0.016270
  H      3.472852   -0.235683   -0.247921
  H      0.285469    3.114016   -0.403571
  H     -1.469279    1.989375    1.566443
  H     -2.103480   -1.717742   -1.379896

 Total Charge           Charge          ....    0
 Multiplicity           Mult            ....    1
 Number of Electrons    NEL             ....   96
 Basis Dimension        Dim             ....  318

ORBITAL ENERGIES
----------------

  NO   OCC          E(Eh)            E(eV)
   0   2.0000     -18.974689      -516.3275
   1   2.0000     -18.969554      -516.1878
   2   2.0000     -18.963657      -516.0273
   3   2.0000     -18.961962      -515.9812
   4   2.0000     -18.958074      -515.8754
   5   2.0000     -18.956256      -515.8259
   6   2.0000     -10.136316      -275.8232
   7   2.0000     -10.088254      -274.5153
   8   2.0000     -10.087903      -274.5058
   9   2.0000     -10.087353      -274.4908
  10   2.0000     -10.085868      -274.4504
  11   2.0000     -10.076240      -274.1884
  12   2.0000      -1.054638       -28.6982
  13   2.0000      -1.013272       -27.5725
  14   2.0000      -1.006108       -27.3776
  15   2.0000      -0.995375       -27.0855
  16   2.0000      -0.985884       -26.8273
  17   2.0000      -0.980981       -26.6939
  18   2.0000      -0.746150       -20.3038
  19   2.0000      -0.733463       -19.9585
  20   2.0000      -0.654570       -17.8118
  21   2.0000      -0.621433       -16.9100
  22   2.0000      -0.588052       -16.0017
  23   2.0000      -0.556686       -15.1482
  24   2.0000      -0.520876       -14.1738
  25   2.0000      -0.510424       -13.8893
  26   2.0000      -0.497663       -13.5421
  27   2.0000      -0.478015       -13.0074
  28   2.0000      -0.476295       -12.9606
  29   2.0000      -0.451294       -12.2803
  30   2.0000      -0.438729       -11.9384
  31   2.0000      -0.412387       -11.2216
  32   2.0000      -0.401823       -10.9342
  33   2.0000      -0.401726       -10.9315
  34   2.0000      -0.385705       -10.4956
  35   2.0000      -0.371730       -10.1153
  36   2.0000      -0.353331        -9.6146
  37   2.0000      -0.346778        -9.4363
  38   2.0000      -0.329229        -8.9588
  39   2.0000      -0.326268        -8.8782
  40   2.0000      -0.301614        -8.2073
  41   2.0000      -0.298080        -8.1112
  42   2.0000      -0.280014        -7.6196
  43   2.0000      -0.266144        -7.2422
  44   2.0000      -0.261491        -7.1155
  45   2.0000      -0.252070        -6.8592
  46   2.0000      -0.244303        -6.6478
  47   2.0000      -0.220386        -5.9970
  48   0.0000       0.045202         1.2300
  49   0.0000       0.061394         1.6706
  50   0.0000       0.071447         1.9442
  51   0.0000       0.082637         2.2487
  52   0.0000       0.095132         2.5887

MULLIKEN ATOMIC CHARGES
-----------------------
   0 C :   -0.236604
   1 C :    0.076351
   2 H :    0.197662
   3 C :   -0.149068
   4 H :    0.200638
   5 C :   -0.005415
   6 H :    0.181718
   7 C :    0.006479
   8 H :    0.186033
   9 C :   -0.047846
  10 H :    0.165763
  11 O :   -0.260971
  12 O :   -0.454238
  13 O :   -0.487000
  14 O :   -0.493458
  15 O :   -0.479882
  16 O :   -0.494360
  17 H :    0.163986
  18 H :    0.158005
  19 H :    0.359132
  20 H :    0.354019
  21 H :    0.350413
  22 H :    0.357442
  23 H :    0.351198
Sum of atomic charges:    0.0000000

LOEWDIN ATOMIC CHARGES
----------------------
   0 C :    0.041058
   1 C :    0.111651
   2 H :    0.198038
   3 C :    0.102497
   4 H :    0.208709
   5 C :    0.111176
   6 H :    0.194181
   7 C :    0.123939
   8 H :    0.196521
   9 C :    0.302052
  10 H :    0.191473
  11 O :   -0.700220
  12 O :   -0.517764
  13 O :   -0.587338
  14 O :   -0.602170
  15 O :   -0.594256
  16 O :   -0.625342
  17 H :    0.196134
  18 H :    0.174234
  19 H :    0.302555
  20 H :    0.295707
  21 H :    0.295217
  22 H :    0.293415
  23 H :    0.288533

  Mayer bond orders larger than 0.100000
B(  0-C ,  1-C ) :   0.9473 B(  0-C , 16-O ) :   1.0079 B(  0-C , 17-H ) :   0.9624
B(  0-C , 18-H ) :   0.9707 B(  1-C ,  2-H ) :   0.9117 B(  1-C ,  3-C ) :   0.8483
B(  1-C , 11-O ) :   0.7606 B(  1-C , 16-O ) :  -0.1053 B(  3-C ,  4-H ) :   0.9808
B(  3-C ,  5-C ) :   0.8763 B(  3-C , 15-O ) :   0.9782 B(  5-C ,  6-H ) :   0.9632
B(  5-C ,  7-C ) :   0.9380 B(  5-C , 14-O ) :   0.8887 B(  7-C ,  8-H ) :   0.9652
B(  7-C ,  9-C ) :   0.8089 B(  7-C , 13-O ) :   0.9097 B(  9-C , 10-H ) :   1.0088
B(  9-C , 11-O ) :   0.9511 B(  9-C , 12-O ) :   1.0504 B( 12-O , 19-H ) :   0.8542
B( 13-O , 20-H ) :   0.8619 B( 14-O , 21-H ) :   0.8553 B( 15-O , 22-H ) :   0.8576
B( 16-O , 23-H ) :   0.8543

Dispersion correction           -0.008053739
FINAL SINGLE POINT ENERGY      -687.110903980262

DIPOLE MOMENT
-------------

Method             : SCF
Type of density    : Electron Density
Multiplicity       :   1
Irrep              :   0
Energy             :  -687.1222897418711000 Eh
Relativity type    :
Basis              : AO
                                X                 Y                 Z
Electronic contribution:      2.343214951      -0.377317832      -1.052550053
Nuclear contribution   :     -2.557423660      -0.824403510       2.788428687
                        -----------------------------------------
Total Dipole Moment    :     -0.214208709      -1.201721342       1.735878634
                        -----------------------------------------
Magnitude (a.u.)       :      2.122096649
Magnitude (Debye)      :      5.393941017

Rotational constants in cm-1:             0.038916             0.027195             0.017840
Rotational constants in MHz :          1166.670935           815.275234           534.836307

                             ****ORCA TERMINATED NORMALLY****
TOTAL RUN TIME: 0 days 0 hours 0 minutes 57 seconds 931 msec
