                         Program Version 6.0.0  -   RELEASE  -
|  1> ! pbe def2-sv(p) def2/J RI DEFGRID1 loosescf d4 GCP(DFT/SV(P)) printgap
|  2> %output
|  3>     printlevel normal
|  4> end
|  5> * xyz 0 1
|  6> C -2.0676867343 -1.1859736912 -0.2753247218
|  7> C -1.2713551611 -0.3540067452 0.7395992357
|  8> H -1.9092036426 -0.2358389195 1.6220098003
|  9> C -0.9363242923 1.0593377688 0.1915986282
| 10> H -1.2257602075 1.1312597438 -0.8615653135
| 11> C 0.577726904 1.2874916864 0.2772303351
| 12> H 0.8754439389 1.3392108305 1.3400594
| 13> C 1.2821340856 0.0917857067 -0.3846643211
| 14> H 0.8913449254 -0.0215611851 -1.4022941733
| 15> C 0.985599921 -1.1926094472 0.418083093
| 16> H 1.8093003939 -1.4028224289 1.1127605513
| 17> O -0.1313403591 -1.0252101073 1.2650875753
| 18> O 0.8892907874 -2.317173238 -0.3851691041
| 19> O 2.6544151957 0.3435791817 -0.5444627712
| 20> O 0.9189718454 2.4892473381 -0.3641860187
| 21> O -1.684233062 2.0525164317 0.8404806368
| 22> O -1.3830899481 -1.2609611915 -1.5134277739
| 23> H -3.0366254199 -0.69473534 -0.4036530876
| 24> H -2.2146440561 -2.1901074402 0.1403023303
| 25> H 0.1675831587 -2.1743602133 -1.0327570195
| 26> H 3.1076118395 0.3007474576 0.3106181228
| 27> H 1.807277443 2.3854945009 -0.74494303
| 28> H -1.3195751233 2.221277919 1.7212366764
| 29> H -1.9777365367 -1.6317518018 -2.1812567939
| 30> *
| 31>
| 32>                          ****END OF INPUT****

CARTESIAN COORDINATES (ANGSTROEM)
---------------------------------
  C     -2.067687   -1.185974   -0.275325
  C     -1.271355   -0.354007    0.739599
  H     -1.909204   -0.235839    1.622010
  C     -0.936324    1.059338    0.191599
  H     -1.225760    1.131260   -0.861565
  C      0.577727    1.287492    0.277230
  H      0.875444    1.339211    1.340059
  C      1.282134    0.091786   -0.384664
  H      0.891345   -0.021561   -1.402294
  C      0.985600   -1.192609    0.418083
  H      1.809300   -1.402822    1.112761
  O     -0.131340   -1.025210    1.265088
  O      0.889291   -2.317173   -0.385169
  O      2.654415    0.343579   -0.544463
  O      0.918972    2.489247   -0.364186
  O     -1.684233    2.052516    0.840481
  O     -1.383090   -1.260961   -1.513428
  H     -3.036625   -0.694735   -0.403653
  H     -2.214644   -2.190107    0.140302
  H      0.167583   -2.174360   -1.032757
  H      3.107612    0.300747    0.310618
  H      1.807277    2.385495   -0.744943
  H     -1.319575    2.221278    1.721237
  H     -1.977737   -1.631752   -2.181257

 Total Charge           Charge          ....    0
 Multiplicity           Mult            ....    1
 Number of Electrons    NEL             ....   96
 Basis Dimension        Dim             ....  192

ORBITAL ENERGIES
----------------

  NO   OCC          E(Eh)            E(eV)
   0   2.0000     -18.795607      -511.4545
   1   2.0000     -18.766257      -510.6558
   2   2.0000     -18.763689      -510.5859
   3   2.0000     -18.746637      -510.1219
   4   2.0000     -18.738948      -509.9127
   5   2.0000     -18.736436      -509.8443
   6   2.0000      -9.980617      -271.5864
   7   2.0000      -9.952932      -270.8330
   8   2.0000      -9.949684      -270.7447
   9   2.0000      -9.940928      -270.5064
  10   2.0000      -9.939722      -270.4736
  11   2.0000      -9.937975      -270.4260
  12   2.0000      -0.976880       -26.5823
  13   2.0000      -0.958337       -26.0777
  14   2.0000      -0.944458       -25.7000
  15   2.0000      -0.930450       -25.3188
  16   2.0000      -0.908045       -24.7092
  17   2.0000      -0.898719       -24.4554
  18   2.0000      -0.707029       -19.2392
  19   2.0000      -0.690806       -18.7978
  20   2.0000      -0.627493       -17.0749
  21   2.0000      -0.588405       -16.0113
  22   2.0000      -0.566546       -15.4165
  23   2.0000      -0.534135       -14.5346
  24   2.0000      -0.508851       -13.8465
  25   2.0000      -0.487132       -13.2555
  26   2.0000      -0.465445       -12.6654
  27   2.0000      -0.460964       -12.5435
  28   2.0000      -0.448828       -12.2132
  29   2.0000      -0.435650       -11.8546
  30   2.0000      -0.423131       -11.5140
  31   2.0000      -0.413690       -11.2571
  32   2.0000      -0.400020       -10.8851
  33   2.0000      -0.379389       -10.3237
  34   2.0000      -0.348103        -9.4724
  35   2.0000      -0.341698        -9.2981
  36   2.0000      -0.329202        -8.9580
  37   2.0000      -0.321952        -8.7608
  38   2.0000      -0.308680        -8.3996
  39   2.0000      -0.287844        -7.8326
  40   2.0000      -0.276948        -7.5362
  41   2.0000      -0.273896        -7.4531
  42   2.0000      -0.263351        -7.1662
  43   2.0000      -0.256495        -6.9796
  44   2.0000      -0.230670        -6.2769
  45   2.0000      -0.227349        -6.1865
  46   2.0000      -0.206714        -5.6250
  47   2.0000      -0.198944        -5.4135
  48   0.0000      -0.002377        -0.0647
  49   0.0000       0.019451         0.5293
  50   0.0000       0.034855         0.9484
  51   0.0000       0.044415         1.2086
  52   0.0000       0.064465         1.7542

MULLIKEN ATOMIC CHARGES
-----------------------
   0 C :   -0.013504
   1 C :    0.058218
   2 H :    0.071364
   3 C :    0.073597
   4 H :    0.073336
   5 C :    0.051018
   6 H :    0.025849
   7 C :   -0.032256
   8 H :    0.075796
   9 C :    0.231396
  10 H :    0.047508
  11 O :   -0.306836
  12 O :   -0.408015
  13 O :   -0.412302
  14 O :   -0.407641
  15 O :   -0.409476
  16 O :   -0.438981
  17 H :    0.101544
  18 H :    0.099223
  19 H :    0.296549
  20 H :    0.302284
  21 H :    0.297895
  22 H :    0.299413
  23 H :    0.324019
Sum of atomic charges:   -0.0000000

LOEWDIN ATOMIC CHARGES
----------------------
   0 C :   -0.138745
   1 C :   -0.069002
   2 H :    0.124902
   3 C :   -0.068453
   4 H :    0.119219
   5 C :   -0.085672
   6 H :    0.089677
   7 C :   -0.100950
   8 H :    0.121412
   9 C :   -0.008165
  10 H :    0.104542
  11 O :   -0.151582
  12 O :   -0.316342
  13 O :   -0.303155
  14 O :   -0.322725
  15 O :   -0.309829
  16 O :   -0.324131
  17 H :    0.116951
  18 H :    0.110049
  19 H :    0.264829
  20 H :    0.285651
  21 H :    0.277395
  22 H :    0.283908
  23 H :    0.300216

  Mayer bond orders larger than 0.100000
B(  0-C ,  1-C ) :   1.0603 B(  0-C , 16-O ) :   1.0147 B(  0-C , 17-H ) :   0.9140
B(  0-C , 18-H ) :   0.9114 B(  1-C ,  2-H ) :   0.8864 B(  1-C ,  3-C ) :   0.9333
B(  1-C , 11-O ) :   1.0484 B(  3-C ,  4-H ) :   0.8754 B(  3-C ,  5-C ) :   1.0166
B(  3-C , 15-O ) :   1.0538 B(  5-C ,  6-H ) :   0.8561 B(  5-C ,  7-C ) :   0.9985
B(  5-C , 14-O ) :   1.1259 B(  7-C ,  8-H ) :   0.8677 B(  7-C ,  9-C ) :   0.9772
B(  7-C , 13-O ) :   1.0155 B(  9-C , 10-H ) :   0.8902 B(  9-C , 11-O ) :   1.0312
B(  9-C , 12-O ) :   1.1549 B( 12-O , 19-H ) :   0.7917 B( 13-O , 20-H ) :   0.8446
B( 14-O , 21-H ) :   0.8234 B( 15-O , 22-H ) :   0.8487 B( 16-O , 19-H ) :   0.1209
B( 16-O , 23-H ) :   0.8379

Dispersion correction           -0.025269503
FINAL SINGLE POINT ENERGY      -685.692570492757

DIPOLE MOMENT
-------------

Method             : SCF
Type of density    : Electron Density
Multiplicity       :   1
Irrep              :   0
Energy             :  -685.8249320746588182 Eh
Relativity type    :
Basis              : AO
                                X                 Y                 Z
Electronic contribution:      2.244988426       0.482665333       0.414683304
Nuclear contribution   :     -2.819223196      -0.908837184      -0.366414171
                        -----------------------------------------
Total Dipole Moment    :     -0.574234770      -0.426171851       0.048269133
                        -----------------------------------------
Magnitude (a.u.)       :      0.716727233
Magnitude (Debye)      :      1.821775848

Rotational constants in cm-1:             0.035663             0.032808             0.021635
Rotational constants in MHz :          1069.162473           983.566163           648.610457

                             ****ORCA TERMINATED NORMALLY****
TOTAL RUN TIME: 0 days 0 hours 0 minutes 12 seconds 131 msec
