                         Program Version 6.0.0  -   RELEASE  -
|  1> ! pbe def2-sv(p) def2/J RI DEFGRID1 loosescf d4 GCP(DFT/SV(P)) printgap
|  2> %output
|  3>     printlevel normal
|  4> end
|  5> * xyz 0 1
|  6> C -1.8505279159 0.0179684441 -0.6190647641
|  7> C -0.8465270534 -0.0468454595 0.5291958063
|  8> C 0.1113535658 -1.24131321 0.3806611377
|  9> C 1.3984413458 -0.698080539 -0.2697592315
| 10> C 1.1702026513 0.8039992238 -0.4785700919
| 11> C 0.0889606289 1.1656966019 0.5362578286
| 12> H -2.4738860468 0.9050385318 -0.529997315
| 13> H -1.339460627 0.0488460583 -1.577264494
| 14> H -2.497691101 -0.8562136734 -0.6042808259
| 15> H -1.404749215 -0.111450056 1.4676641412
| 16> H 0.3358968949 -1.6638941739 1.3601368486
| 17> H -0.340931106 -2.0282693706 -0.2213132468
| 18> H 2.2498789384 -0.8596567017 0.3914927532
| 19> H 1.6146658576 -1.1992302913 -1.2123350253
| 20> H 2.082144974 1.3811801763 -0.3323016993
| 21> H 0.8105081613 0.997795576 -1.4893768538
| 22> H 0.535073903 1.2787274531 1.5257084389
| 23> H -0.4283110422 2.0901442194 0.2837641434
| 24> *
| 25>
| 26>                          ****END OF INPUT****

CARTESIAN COORDINATES (ANGSTROEM)
---------------------------------
  C     -1.850528    0.017968   -0.619065
  C     -0.846527   -0.046845    0.529196
  C      0.111354   -1.241313    0.380661
  C      1.398441   -0.698081   -0.269759
  C      1.170203    0.803999   -0.478570
  C      0.088961    1.165697    0.536258
  H     -2.473886    0.905039   -0.529997
  H     -1.339461    0.048846   -1.577264
  H     -2.497691   -0.856214   -0.604281
  H     -1.404749   -0.111450    1.467664
  H      0.335897   -1.663894    1.360137
  H     -0.340931   -2.028269   -0.221313
  H      2.249879   -0.859657    0.391493
  H      1.614666   -1.199230   -1.212335
  H      2.082145    1.381180   -0.332302
  H      0.810508    0.997796   -1.489377
  H      0.535074    1.278727    1.525708
  H     -0.428311    2.090144    0.283764

 Total Charge           Charge          ....    0
 Multiplicity           Mult            ....    1
 Number of Electrons    NEL             ....   48
 Basis Dimension        Dim             ....  108

ORBITAL ENERGIES
----------------

  NO   OCC          E(Eh)            E(eV)
   0   2.0000      -9.885367      -268.9945
   1   2.0000      -9.875181      -268.7173
   2   2.0000      -9.875110      -268.7154
   3   2.0000      -9.874245      -268.6919
   4   2.0000      -9.873467      -268.6707
   5   2.0000      -9.869422      -268.5606
   6   2.0000      -0.756721       -20.5914
   7   2.0000      -0.660765       -17.9803
   8   2.0000      -0.630021       -17.1437
   9   2.0000      -0.584542       -15.9062
  10   2.0000      -0.497189       -13.5292
  11   2.0000      -0.478622       -13.0240
  12   2.0000      -0.436836       -11.8869
  13   2.0000      -0.420802       -11.4506
  14   2.0000      -0.382958       -10.4208
  15   2.0000      -0.359106        -9.7718
  16   2.0000      -0.346350        -9.4247
  17   2.0000      -0.337961        -9.1964
  18   2.0000      -0.292503        -7.9594
  19   2.0000      -0.289093        -7.8666
  20   2.0000      -0.280850        -7.6423
  21   2.0000      -0.275805        -7.5050
  22   2.0000      -0.271089        -7.3767
  23   2.0000      -0.266043        -7.2394
  24   0.0000       0.027993         0.7617
  25   0.0000       0.047863         1.3024
  26   0.0000       0.074315         2.0222
  27   0.0000       0.087103         2.3702
  28   0.0000       0.096273         2.6197

MULLIKEN ATOMIC CHARGES
-----------------------
   0 C :   -0.249503
   1 C :   -0.194658
   2 C :   -0.106893
   3 C :   -0.161929
   4 C :   -0.169454
   5 C :   -0.130057
   6 H :    0.097585
   7 H :    0.096118
   8 H :    0.100677
   9 H :    0.067327
  10 H :    0.077925
  11 H :    0.076642
  12 H :    0.079888
  13 H :    0.082242
  14 H :    0.085951
  15 H :    0.085154
  16 H :    0.079893
  17 H :    0.083091
Sum of atomic charges:   -0.0000000

LOEWDIN ATOMIC CHARGES
----------------------
   0 C :   -0.330770
   1 C :   -0.153630
   2 C :   -0.222148
   3 C :   -0.230793
   4 C :   -0.231221
   5 C :   -0.220246
   6 H :    0.116647
   7 H :    0.115050
   8 H :    0.117662
   9 H :    0.112667
  10 H :    0.117297
  11 H :    0.115577
  12 H :    0.117424
  13 H :    0.117239
  14 H :    0.116711
  15 H :    0.114156
  16 H :    0.114533
  17 H :    0.113846

  Mayer bond orders larger than 0.100000
B(  0-C ,  1-C ) :   1.1097 B(  0-C ,  6-H ) :   0.9495 B(  0-C ,  7-H ) :   0.9508
B(  0-C ,  8-H ) :   0.9483 B(  1-C ,  2-C ) :   1.0997 B(  1-C ,  5-C ) :   1.0832
B(  1-C ,  9-H ) :   0.9088 B(  2-C ,  3-C ) :   1.1539 B(  2-C , 10-H ) :   0.9190
B(  2-C , 11-H ) :   0.9244 B(  3-C ,  4-C ) :   1.1600 B(  3-C , 12-H ) :   0.9238
B(  3-C , 13-H ) :   0.9259 B(  4-C ,  5-C ) :   1.1185 B(  4-C , 14-H ) :   0.9273
B(  4-C , 15-H ) :   0.9193 B(  5-C , 16-H ) :   0.9235 B(  5-C , 17-H ) :   0.9287

Dispersion correction           -0.014700072
FINAL SINGLE POINT ENERGY      -235.266722253097

DIPOLE MOMENT
-------------

Method             : SCF
Type of density    : Electron Density
Multiplicity       :   1
Irrep              :   0
Energy             :  -235.3274468180826489 Eh
Relativity type    :
Basis              : AO
                                X                 Y                 Z
Electronic contribution:      0.804963356       0.012514116       0.908716780
Nuclear contribution   :     -0.803874766      -0.015932121      -0.880093688
                        -----------------------------------------
Total Dipole Moment    :      0.001088591      -0.003418005       0.028623092
                        -----------------------------------------
Magnitude (a.u.)       :      0.028846996
Magnitude (Debye)      :      0.073323236

Rotational constants in cm-1:             0.171002             0.112339             0.089738
Rotational constants in MHz :          5126.508089          3367.841606          2690.270366

                             ****ORCA TERMINATED NORMALLY****
TOTAL RUN TIME: 0 days 0 hours 0 minutes 5 seconds 560 msec
