                         Program Version 6.0.0  -   RELEASE  -
|  1> ! r2scan-3c def2/J RI DEFGRID2 scfconv6 printgap
|  2> %output
|  3>     printlevel normal
|  4> end
|  5> * xyz 0 1
|  6> C 1.7791987491 0.9102319513 0.6531501103
|  7> C 1.2658481778 0.069691714 -0.5098165593
|  8> C 1.511271936 -1.4200808733 -0.3030190974
|  9> O -0.1324018222 0.3412111209 -0.7796950414
| 10> C -1.0810291631 0.0801686021 0.1087510565
| 11> O -0.8916141928 -0.3877779159 1.212772077
| 12> C -2.4368377225 0.4310890046 -0.4357735316
| 13> H 1.5550464737 1.9607252958 0.4839690868
| 14> H 1.3108172168 0.594854468 1.5823151975
| 15> H 2.8539432606 0.7859080151 0.7380150559
| 16> H 1.7400806955 0.3973640266 -1.4412870842
| 17> H 1.0414331051 -1.7556280001 0.6183566743
| 18> H 2.5793876383 -1.6022556004 -0.2426722945
| 19> H 1.1005505136 -1.9866404273 -1.1353329409
| 20> H -2.9602453596 -0.491611916 -0.6760286436
| 21> H -2.3338465859 1.0366851458 -1.329360643
| 22> H -3.0070249487 0.9525068102 0.3273925158
| 23> *
| 24>
| 25>                          ****END OF INPUT****

CARTESIAN COORDINATES (ANGSTROEM)
---------------------------------
  C      1.779199    0.910232    0.653150
  C      1.265848    0.069692   -0.509817
  C      1.511272   -1.420081   -0.303019
  O     -0.132402    0.341211   -0.779695
  C     -1.081029    0.080169    0.108751
  O     -0.891614   -0.387778    1.212772
  C     -2.436838    0.431089   -0.435774
  H      1.555046    1.960725    0.483969
  H      1.310817    0.594854    1.582315
  H      2.853943    0.785908    0.738015
  H      1.740081    0.397364   -1.441287
  H      1.041433   -1.755628    0.618357
  H      2.579388   -1.602256   -0.242672
  H      1.100551   -1.986640   -1.135333
  H     -2.960245   -0.491612   -0.676029
  H     -2.333847    1.036685   -1.329361
  H     -3.007025    0.952507    0.327393

 Total Charge           Charge          ....    0
 Multiplicity           Mult            ....    1
 Number of Electrons    NEL             ....   56
 Basis Dimension        Dim             ....  193

ORBITAL ENERGIES
----------------

  NO   OCC          E(Eh)            E(eV)
   0   2.0000     -18.993699      -516.8448
   1   2.0000     -18.924903      -514.9728
   2   2.0000     -10.154709      -276.3237
   3   2.0000     -10.100663      -274.8530
   4   2.0000     -10.035857      -273.0896
   5   2.0000     -10.022719      -272.7321
   6   2.0000     -10.022571      -272.7280
   7   2.0000      -1.067523       -29.0488
   8   2.0000      -0.974631       -26.5211
   9   2.0000      -0.769919       -20.9506
  10   2.0000      -0.708507       -19.2794
  11   2.0000      -0.662650       -18.0316
  12   2.0000      -0.613137       -16.6843
  13   2.0000      -0.497896       -13.5484
  14   2.0000      -0.462827       -12.5942
  15   2.0000      -0.444807       -12.1038
  16   2.0000      -0.443433       -12.0664
  17   2.0000      -0.407282       -11.0827
  18   2.0000      -0.396004       -10.7758
  19   2.0000      -0.390284       -10.6202
  20   2.0000      -0.371699       -10.1144
  21   2.0000      -0.364185        -9.9100
  22   2.0000      -0.344702        -9.3798
  23   2.0000      -0.329291        -8.9605
  24   2.0000      -0.320161        -8.7120
  25   2.0000      -0.303148        -8.2491
  26   2.0000      -0.269746        -7.3402
  27   2.0000      -0.229496        -6.2449
  28   0.0000      -0.013317        -0.3624
  29   0.0000       0.075396         2.0516
  30   0.0000       0.093145         2.5346
  31   0.0000       0.111362         3.0303
  32   0.0000       0.132620         3.6088

MULLIKEN ATOMIC CHARGES
-----------------------
   0 C :   -0.504646
   1 C :    0.056203
   2 C :   -0.503840
   3 O :   -0.166947
   4 C :    0.437333
   5 O :   -0.441095
   6 C :   -0.526148
   7 H :    0.152465
   8 H :    0.192869
   9 H :    0.145271
  10 H :    0.151912
  11 H :    0.192535
  12 H :    0.145408
  13 H :    0.152482
  14 H :    0.172929
  15 H :    0.171102
  16 H :    0.172168
Sum of atomic charges:    0.0000000

LOEWDIN ATOMIC CHARGES
----------------------
   0 C :   -0.383088
   1 C :    0.072107
   2 C :   -0.383286
   3 O :   -0.594749
   4 C :    0.359524
   5 O :   -0.448623
   6 C :   -0.335325
   7 H :    0.161232
   8 H :    0.178927
   9 H :    0.159047
  10 H :    0.183997
  11 H :    0.178847
  12 H :    0.159140
  13 H :    0.161139
  14 H :    0.180327
  15 H :    0.173610
  16 H :    0.177175

  Mayer bond orders larger than 0.100000
B(  0-C ,  1-C ) :   0.9318 B(  0-C ,  7-H ) :   0.9686 B(  0-C ,  8-H ) :   0.9676
B(  0-C ,  9-H ) :   0.9645 B(  1-C ,  2-C ) :   0.9300 B(  1-C ,  3-O ) :   0.8405
B(  1-C , 10-H ) :   0.9555 B(  2-C , 11-H ) :   0.9675 B(  2-C , 12-H ) :   0.9642
B(  2-C , 13-H ) :   0.9689 B(  3-O ,  4-C ) :   1.0646 B(  4-C ,  5-O ) :   1.8225
B(  4-C ,  6-C ) :   0.9430 B(  6-C , 14-H ) :   0.9402 B(  6-C , 15-H ) :   0.9868
B(  6-C , 16-H ) :   0.9662

Dispersion correction           -0.004239003
FINAL SINGLE POINT ENERGY      -346.939147540977

DIPOLE MOMENT
-------------

Method             : SCF
Type of density    : Electron Density
Multiplicity       :   1
Irrep              :   0
Energy             :  -346.9453564557513232 Eh
Relativity type    :
Basis              : AO
                                X                 Y                 Z
Electronic contribution:     -3.359182659       0.327331665       0.320946886
Nuclear contribution   :      3.625039748      -0.102098947      -1.001764637
                        -----------------------------------------
Total Dipole Moment    :      0.265857089       0.225232718      -0.680817752
                        -----------------------------------------
Magnitude (a.u.)       :      0.764802314
Magnitude (Debye)      :      1.943972993

Rotational constants in cm-1:             0.153101             0.058712             0.058291
Rotational constants in MHz :          4589.842121          1760.154911          1747.534813

                             ****ORCA TERMINATED NORMALLY****
TOTAL RUN TIME: 0 days 0 hours 0 minutes 21 seconds 482 msec
