                         Program Version 6.0.0  -   RELEASE  -
|  1> ! r2scan-3c def2/J RI DEFGRID2 scfconv6 printgap
|  2> %output
|  3>     printlevel normal
|  4> end
|  5> %cpcm
|  6>     smd true
|  7>     smdsolvent "water"
|  8> end
|  9> * xyz 0 1
| 10> C 1.7791987491 0.9102319513 0.6531501103
| 11> C 1.2658481778 0.069691714 -0.5098165593
| 12> C 1.511271936 -1.4200808733 -0.3030190974
| 13> O -0.1324018222 0.3412111209 -0.7796950414
| 14> C -1.0810291631 0.0801686021 0.1087510565
| 15> O -0.8916141928 -0.3877779159 1.212772077
| 16> C -2.4368377225 0.4310890046 -0.4357735316
| 17> H 1.5550464737 1.9607252958 0.4839690868
| 18> H 1.3108172168 0.594854468 1.5823151975
| 19> H 2.8539432606 0.7859080151 0.7380150559
| 20> H 1.7400806955 0.3973640266 -1.4412870842
| 21> H 1.0414331051 -1.7556280001 0.6183566743
| 22> H 2.5793876383 -1.6022556004 -0.2426722945
| 23> H 1.1005505136 -1.9866404273 -1.1353329409
| 24> H -2.9602453596 -0.491611916 -0.6760286436
| 25> H -2.3338465859 1.0366851458 -1.329360643
| 26> H -3.0070249487 0.9525068102 0.3273925158
| 27> *
| 28>
| 29>                          ****END OF INPUT****

CARTESIAN COORDINATES (ANGSTROEM)
---------------------------------
  C      1.779199    0.910232    0.653150
  C      1.265848    0.069692   -0.509817
  C      1.511272   -1.420081   -0.303019
  O     -0.132402    0.341211   -0.779695
  C     -1.081029    0.080169    0.108751
  O     -0.891614   -0.387778    1.212772
  C     -2.436838    0.431089   -0.435774
  H      1.555046    1.960725    0.483969
  H      1.310817    0.594854    1.582315
  H      2.853943    0.785908    0.738015
  H      1.740081    0.397364   -1.441287
  H      1.041433   -1.755628    0.618357
  H      2.579388   -1.602256   -0.242672
  H      1.100551   -1.986640   -1.135333
  H     -2.960245   -0.491612   -0.676029
  H     -2.333847    1.036685   -1.329361
  H     -3.007025    0.952507    0.327393

 Total Charge           Charge          ....    0
 Multiplicity           Mult            ....    1
 Number of Electrons    NEL             ....   56
 Basis Dimension        Dim             ....  193

ORBITAL ENERGIES
----------------

  NO   OCC          E(Eh)            E(eV)
   0   2.0000     -18.998998      -516.9890
   1   2.0000     -18.939469      -515.3692
   2   2.0000     -10.164301      -276.5847
   3   2.0000     -10.093327      -274.6534
   4   2.0000     -10.028083      -272.8780
   5   2.0000     -10.014850      -272.5179
   6   2.0000     -10.014832      -272.5174
   7   2.0000      -1.074323       -29.2338
   8   2.0000      -0.987296       -26.8657
   9   2.0000      -0.765169       -20.8213
  10   2.0000      -0.703359       -19.1394
  11   2.0000      -0.655218       -17.8294
  12   2.0000      -0.610669       -16.6172
  13   2.0000      -0.494568       -13.4579
  14   2.0000      -0.464900       -12.6506
  15   2.0000      -0.451200       -12.2778
  16   2.0000      -0.445168       -12.1136
  17   2.0000      -0.406654       -11.0656
  18   2.0000      -0.389902       -10.6098
  19   2.0000      -0.382723       -10.4144
  20   2.0000      -0.370411       -10.0794
  21   2.0000      -0.358912        -9.7665
  22   2.0000      -0.338822        -9.2198
  23   2.0000      -0.327185        -8.9032
  24   2.0000      -0.317697        -8.6450
  25   2.0000      -0.301899        -8.2151
  26   2.0000      -0.276314        -7.5189
  27   2.0000      -0.242864        -6.6087
  28   0.0000      -0.020476        -0.5572
  29   0.0000       0.081093         2.2067
  30   0.0000       0.098346         2.6761
  31   0.0000       0.120335         3.2745
  32   0.0000       0.139415         3.7937

MULLIKEN ATOMIC CHARGES
-----------------------
   0 C :   -0.533681
   1 C :    0.070066
   2 C :   -0.532753
   3 O :   -0.190154
   4 C :    0.479223
   5 O :   -0.518815
   6 C :   -0.565213
   7 H :    0.168184
   8 H :    0.178211
   9 H :    0.170765
  10 H :    0.177293
  11 H :    0.178096
  12 H :    0.170766
  13 H :    0.168399
  14 H :    0.201763
  15 H :    0.187140
  16 H :    0.190710
Sum of atomic charges:    0.0000000

LOEWDIN ATOMIC CHARGES
----------------------
   0 C :   -0.385751
   1 C :    0.076573
   2 C :   -0.385885
   3 O :   -0.597878
   4 C :    0.368552
   5 O :   -0.505416
   6 C :   -0.334283
   7 H :    0.165855
   8 H :    0.171962
   9 H :    0.168467
  10 H :    0.194739
  11 H :    0.171981
  12 H :    0.168489
  13 H :    0.165903
  14 H :    0.191197
  15 H :    0.181183
  16 H :    0.184312

  Mayer bond orders larger than 0.100000
B(  0-C ,  1-C ) :   0.9243 B(  0-C ,  7-H ) :   0.9655 B(  0-C ,  8-H ) :   0.9694
B(  0-C ,  9-H ) :   0.9597 B(  1-C ,  2-C ) :   0.9226 B(  1-C ,  3-O ) :   0.8189
B(  1-C , 10-H ) :   0.9458 B(  2-C , 11-H ) :   0.9692 B(  2-C , 12-H ) :   0.9594
B(  2-C , 13-H ) :   0.9657 B(  3-O ,  4-C ) :   1.0893 B(  4-C ,  5-O ) :   1.7542
B(  4-C ,  6-C ) :   0.9404 B(  6-C , 14-H ) :   0.9290 B(  6-C , 15-H ) :   0.9774
B(  6-C , 16-H ) :   0.9576

Dispersion correction           -0.004239003
FINAL SINGLE POINT ENERGY      -346.943571266322

DIPOLE MOMENT
-------------

Method             : SCF
Type of density    : Electron Density
Multiplicity       :   1
Irrep              :   0
Energy             :  -346.9497801810966848 Eh
Relativity type    :
Basis              : AO
                                X                 Y                 Z
Electronic contribution:     -3.237301863       0.438959717      -0.022579726
Nuclear contribution   :      3.625039748      -0.102098947      -1.001764637
                        -----------------------------------------
Total Dipole Moment    :      0.387737885       0.336860770      -1.024344364
                        -----------------------------------------
Magnitude (a.u.)       :      1.145904543
Magnitude (Debye)      :      2.912657875

Rotational constants in cm-1:             0.153101             0.058712             0.058291
Rotational constants in MHz :          4589.842121          1760.154911          1747.534813

                             ****ORCA TERMINATED NORMALLY****
TOTAL RUN TIME: 0 days 0 hours 0 minutes 25 seconds 366 msec
