                         Program Version 6.0.0  -   RELEASE  -
|  1> ! pbe def2-sv(p) def2/J RI DEFGRID1 loosescf d4 GCP(DFT/SV(P)) printgap
|  2> %output
|  3>     printlevel normal
|  4> end
|  5> * xyz 0 1
|  6> C 2.7596249834 0.0022339417 0.7332962828
|  7> C 1.9900429146 -0.0027779019 -0.5903437888
|  8> C 0.5141173304 -0.00135612 -0.3294995712
|  9> C -0.1934199393 1.187045807 -0.1811000263
| 10> C -1.5477293414 1.1326585406 0.1008990221
| 11> N -2.2229865836 0.0014295022 0.2421264199
| 12> C -1.5496439894 -1.1312135168 0.1027249412
| 13> C -0.1954580977 -1.1883241551 -0.1791313014
| 14> H 2.5087712159 0.8867009945 1.3142817777
| 15> H 3.8297805918 0.0007242618 0.5452556415
| 16> H 2.5074722838 -0.8769211686 1.3218258715
| 17> H 2.2620022135 -0.8912801633 -1.1621916512
| 18> H 2.2623885089 0.881121074 -1.1691099074
| 19> H 0.3028783442 2.1393813866 -0.28687712
| 20> H -2.1296105604 2.0370171221 0.2205691548
| 21> H -2.1330616034 -2.034360131 0.2239961147
| 22> H 0.299416688 -2.1415923112 -0.2832376558
| 23> *
| 24>
| 25>                          ****END OF INPUT****

CARTESIAN COORDINATES (ANGSTROEM)
---------------------------------
  C      2.759625    0.002234    0.733296
  C      1.990043   -0.002778   -0.590344
  C      0.514117   -0.001356   -0.329500
  C     -0.193420    1.187046   -0.181100
  C     -1.547729    1.132659    0.100899
  N     -2.222987    0.001430    0.242126
  C     -1.549644   -1.131214    0.102725
  C     -0.195458   -1.188324   -0.179131
  H      2.508771    0.886701    1.314282
  H      3.829781    0.000724    0.545256
  H      2.507472   -0.876921    1.321826
  H      2.262002   -0.891280   -1.162192
  H      2.262389    0.881121   -1.169110
  H      0.302878    2.139381   -0.286877
  H     -2.129611    2.037017    0.220569
  H     -2.133062   -2.034360    0.223996
  H      0.299417   -2.141592   -0.283238

 Total Charge           Charge          ....    0
 Multiplicity           Mult            ....    1
 Number of Electrons    NEL             ....   58
 Basis Dimension        Dim             ....  130

ORBITAL ENERGIES
----------------

  NO   OCC          E(Eh)            E(eV)
   0   2.0000     -13.974170      -380.2565
   1   2.0000      -9.919595      -269.9259
   2   2.0000      -9.918029      -269.8833
   3   2.0000      -9.918021      -269.8831
   4   2.0000      -9.902717      -269.4666
   5   2.0000      -9.898657      -269.3561
   6   2.0000      -9.898647      -269.3559
   7   2.0000      -9.889340      -269.1026
   8   2.0000      -0.854043       -23.2397
   9   2.0000      -0.751012       -20.4361
  10   2.0000      -0.683132       -18.5890
  11   2.0000      -0.679798       -18.4982
  12   2.0000      -0.583350       -15.8738
  13   2.0000      -0.568363       -15.4659
  14   2.0000      -0.529979       -14.4214
  15   2.0000      -0.458123       -12.4662
  16   2.0000      -0.447771       -12.1845
  17   2.0000      -0.416035       -11.3209
  18   2.0000      -0.393151       -10.6982
  19   2.0000      -0.390845       -10.6354
  20   2.0000      -0.378897       -10.3103
  21   2.0000      -0.362420        -9.8620
  22   2.0000      -0.340031        -9.2527
  23   2.0000      -0.326321        -8.8796
  24   2.0000      -0.315894        -8.5959
  25   2.0000      -0.304654        -8.2900
  26   2.0000      -0.249087        -6.7780
  27   2.0000      -0.239038        -6.5046
  28   2.0000      -0.199966        -5.4414
  29   0.0000      -0.051444        -1.3999
  30   0.0000      -0.043077        -1.1722
  31   0.0000       0.037411         1.0180
  32   0.0000       0.062784         1.7084
  33   0.0000       0.065311         1.7772

MULLIKEN ATOMIC CHARGES
-----------------------
   0 C :   -0.274137
   1 C :   -0.125211
   2 C :    0.071577
   3 C :   -0.120425
   4 C :   -0.053747
   5 N :   -0.062069
   6 C :   -0.053717
   7 C :   -0.120409
   8 H :    0.106556
   9 H :    0.111722
  10 H :    0.106561
  11 H :    0.092425
  12 H :    0.092539
  13 H :    0.048015
  14 H :    0.066158
  15 H :    0.066156
  16 H :    0.048005
Sum of atomic charges:    0.0000000

LOEWDIN ATOMIC CHARGES
----------------------
   0 C :   -0.330371
   1 C :   -0.217161
   2 C :   -0.016676
   3 C :   -0.143714
   4 C :   -0.079136
   5 N :   -0.083158
   6 C :   -0.079128
   7 C :   -0.143744
   8 H :    0.121762
   9 H :    0.121810
  10 H :    0.121790
  11 H :    0.124848
  12 H :    0.124918
  13 H :    0.125158
  14 H :    0.113818
  15 H :    0.113822
  16 H :    0.125161

  Mayer bond orders larger than 0.100000
B(  0-C ,  1-C ) :   1.1438 B(  0-C ,  8-H ) :   0.9547 B(  0-C ,  9-H ) :   0.9486
B(  0-C , 10-H ) :   0.9547 B(  1-C ,  2-C ) :   1.0735 B(  1-C , 11-H ) :   0.9092
B(  1-C , 12-H ) :   0.9092 B(  2-C ,  3-C ) :   1.4127 B(  2-C ,  7-C ) :   1.4129
B(  3-C ,  4-C ) :   1.3782 B(  3-C , 13-H ) :   0.9440 B(  4-C ,  5-N ) :   1.5471
B(  4-C , 14-H ) :   0.9517 B(  5-N ,  6-C ) :   1.5470 B(  6-C ,  7-C ) :   1.3782
B(  6-C , 15-H ) :   0.9517 B(  7-C , 16-H ) :   0.9439

Dispersion correction           -0.016316400
FINAL SINGLE POINT ENERGY      -326.178015351178

DIPOLE MOMENT
-------------

Method             : SCF
Type of density    : Electron Density
Multiplicity       :   1
Irrep              :   0
Energy             :  -326.2272224949492738 Eh
Relativity type    :
Basis              : AO
                                X                 Y                 Z
Electronic contribution:     -8.088542489      -0.001451140      -0.830585296
Nuclear contribution   :      9.097463160       0.000749990       0.681042150
                        -----------------------------------------
Total Dipole Moment    :      1.008920671      -0.000701150      -0.149543146
                        -----------------------------------------
Magnitude (a.u.)       :      1.019943412
Magnitude (Debye)      :      2.592490126

Rotational constants in cm-1:             0.159020             0.049922             0.041884
Rotational constants in MHz :          4767.314586          1496.622787          1255.652274

                             ****ORCA TERMINATED NORMALLY****
TOTAL RUN TIME: 0 days 0 hours 0 minutes 7 seconds 185 msec
