                         Program Version 6.0.0  -   RELEASE  -
|  1> ! wb97x-v def2-tzvp def2/J RIJCOSX DEFGRID2 scfconv7 GCP(DFT/TZ) printgap
|  2> %output
|  3>     printlevel normal
|  4> end
|  5> * xyz 0 1
|  6> C -2.9975717168090097 1.2313266564383258 0.013897324704434307
|  7> C -1.7537033641922821 0.3859745215506718 -0.011282002907376212
|  8> C -1.832281772099425 -1.0064954898606262 -0.01267000306358114
|  9> C -0.6777828413303234 -1.7892019199285787 -0.003566238171342038
| 10> C 0.5702108859938164 -1.1875678422999247 0.004084191818346239
| 11> C 0.6672824992550173 0.21361221533225735 0.002171820739174932
| 12> C -0.48839449294663756 0.9887664705769387 -0.005590859871496113
| 13> O 1.950701667867953 0.6989572879228612 0.0029656044172127125
| 14> C 2.1153056889752757 2.125651371596446 -0.0029350497778593454
| 15> O 1.7028034212498484 -1.9761000453211843 0.007457533244636564
| 16> H -3.777898226123736 0.8053564734788461 -0.6238598107533119
| 17> H -3.4082160784744473 1.2968886859768516 1.0286344949391872
| 18> H -2.791568510661089 2.250005985646779 -0.3250890785263897
| 19> H -2.8038130084690422 -1.4919024110794654 -0.02078587068037367
| 20> H -0.7378058513601656 -2.8732166683524842 -0.006917136303718689
| 21> H -0.41737827137778627 2.070704974564488 -0.008699907164514084
| 22> H 1.6719681277094562 2.5655181244476277 -0.9030456296124764
| 23> H 3.191941500712723 2.297837795366953 -0.002158230257488715
| 24> H 1.669334937876922 2.573313594632394 0.8920097674877744
| 25> H 2.4771615478280724 -1.3937258947736795 0.009836075623522835
| 26> *
| 27>
| 28>                          ****END OF INPUT****

CARTESIAN COORDINATES (ANGSTROEM)
---------------------------------
  C     -2.997572    1.231327    0.013897
  C     -1.753703    0.385975   -0.011282
  C     -1.832282   -1.006495   -0.012670
  C     -0.677783   -1.789202   -0.003566
  C      0.570211   -1.187568    0.004084
  C      0.667282    0.213612    0.002172
  C     -0.488394    0.988766   -0.005591
  O      1.950702    0.698957    0.002966
  C      2.115306    2.125651   -0.002935
  O      1.702803   -1.976100    0.007458
  H     -3.777898    0.805356   -0.623860
  H     -3.408216    1.296889    1.028634
  H     -2.791569    2.250006   -0.325089
  H     -2.803813   -1.491902   -0.020786
  H     -0.737806   -2.873217   -0.006917
  H     -0.417378    2.070705   -0.008700
  H      1.671968    2.565518   -0.903046
  H      3.191942    2.297838   -0.002158
  H      1.669335    2.573314    0.892010
  H      2.477162   -1.393726    0.009836

 Total Charge           Charge          ....    0
 Multiplicity           Mult            ....    1
 Number of Electrons    NEL             ....   74
 Basis Dimension        Dim             ....  370

ORBITAL ENERGIES
----------------

  NO   OCC          E(Eh)            E(eV)
   0   2.0000     -21.714171      -590.8726
   1   2.0000     -21.691433      -590.2539
   2   2.0000     -12.110952      -329.5557
   3   2.0000     -12.109492      -329.5160
   4   2.0000     -12.102657      -329.3300
   5   2.0000     -12.054504      -328.0197
   6   2.0000     -12.048739      -327.8629
   7   2.0000     -12.044190      -327.7391
   8   2.0000     -12.041685      -327.6709
   9   2.0000     -12.040643      -327.6426
  10   2.0000      -1.728219       -47.0272
  11   2.0000      -1.701839       -46.3094
  12   2.0000      -1.386572       -37.7306
  13   2.0000      -1.307665       -35.5834
  14   2.0000      -1.286753       -35.0143
  15   2.0000      -1.236375       -33.6435
  16   2.0000      -1.198779       -32.6204
  17   2.0000      -1.128249       -30.7012
  18   2.0000      -1.110797       -30.2263
  19   2.0000      -1.084846       -29.5202
  20   2.0000      -1.031224       -28.0610
  21   2.0000      -1.003543       -27.3078
  22   2.0000      -0.989422       -26.9235
  23   2.0000      -0.980821       -26.6895
  24   2.0000      -0.934268       -25.4227
  25   2.0000      -0.933496       -25.4017
  26   2.0000      -0.909082       -24.7374
  27   2.0000      -0.892521       -24.2867
  28   2.0000      -0.845559       -23.0088
  29   2.0000      -0.838733       -22.8231
  30   2.0000      -0.836554       -22.7638
  31   2.0000      -0.831706       -22.6319
  32   2.0000      -0.827005       -22.5039
  33   2.0000      -0.805425       -21.9167
  34   2.0000      -0.754750       -20.5378
  35   2.0000      -0.638976       -17.3874
  36   2.0000      -0.628865       -17.1123
  37   0.0000      -0.245929        -6.6921
  38   0.0000      -0.242703        -6.6043
  39   0.0000      -0.204610        -5.5677
  40   0.0000      -0.145189        -3.9508
  41   0.0000      -0.092738        -2.5235

MULLIKEN ATOMIC CHARGES
-----------------------
   0 C :   -0.368371
   1 C :    0.151241
   2 C :   -0.210628
   3 C :   -0.173394
   4 C :    0.104725
   5 C :    0.324565
   6 C :   -0.331183
   7 O :   -0.313136
   8 C :   -0.216556
   9 O :   -0.399156
  10 H :    0.121093
  11 H :    0.123635
  12 H :    0.111461
  13 H :    0.111958
  14 H :    0.118781
  15 H :    0.128719
  16 H :    0.127355
  17 H :    0.137481
  18 H :    0.127488
  19 H :    0.323924
Sum of atomic charges:    0.0000000

LOEWDIN ATOMIC CHARGES
----------------------
   0 C :   -0.254264
   1 C :   -0.180829
   2 C :   -0.128832
   3 C :   -0.117762
   4 C :   -0.239973
   5 C :   -0.234602
   6 C :   -0.121552
   7 O :    0.195581
   8 C :   -0.305995
   9 O :    0.060563
  10 H :    0.125497
  11 H :    0.126270
  12 H :    0.122156
  13 H :    0.143239
  14 H :    0.148705
  15 H :    0.146586
  16 H :    0.108083
  17 H :    0.112817
  18 H :    0.108063
  19 H :    0.186250

  Mayer bond orders larger than 0.100000
B(  0-C ,  1-C ) :   0.8989 B(  0-C , 10-H ) :   0.9895 B(  0-C , 11-H ) :   0.9657
B(  0-C , 12-H ) :   0.9966 B(  1-C ,  2-C ) :   1.4273 B(  1-C ,  6-C ) :   1.3830
B(  2-C ,  3-C ) :   1.4089 B(  2-C , 13-H ) :   0.9801 B(  3-C ,  4-C ) :   1.4769
B(  3-C , 14-H ) :   0.9779 B(  4-C ,  5-C ) :   1.2633 B(  4-C ,  9-O ) :   1.2039
B(  5-C ,  6-C ) :   1.3507 B(  5-C ,  7-O ) :   1.0408 B(  6-C , 15-H ) :   0.9375
B(  7-O ,  8-C ) :   0.9522 B(  8-C , 16-H ) :   0.9741 B(  8-C , 17-H ) :   0.9770
B(  8-C , 18-H ) :   0.9742 B(  9-O , 19-H ) :   0.8726

FINAL SINGLE POINT ENERGY      -461.336048052966

DIPOLE MOMENT
-------------

Method             : SCF
Type of density    : Electron Density
Multiplicity       :   1
Irrep              :   0
Energy             :  -461.3483759809660114 Eh
Relativity type    :
Basis              : AO
                                X                 Y                 Z
Electronic contribution:      4.724173858      -6.504059463      -0.026238573
Nuclear contribution   :     -4.613670233       7.629575160       0.036511195
                        -----------------------------------------
Total Dipole Moment    :      0.110503626       1.125515697       0.010272622
                        -----------------------------------------
Magnitude (a.u.)       :      1.130973989
Magnitude (Debye)      :      2.874707423

Rotational constants in cm-1:             0.062317             0.039046             0.024226
Rotational constants in MHz :          1868.223493          1170.584423           726.275880

                             ****ORCA TERMINATED NORMALLY****
TOTAL RUN TIME: 0 days 0 hours 4 minutes 11 seconds 620 msec
