                         Program Version 6.0.0  -   RELEASE  -
|  1> ! wb97x-v def2-tzvp def2/J RIJCOSX DEFGRID2 scfconv7 GCP(DFT/TZ) printgap
|  2> %output
|  3>     printlevel normal
|  4> end
|  5> %cpcm
|  6>     smd true
|  7>     smdsolvent "water"
|  8> end
|  9> * xyz 0 1
| 10> C -2.9975717168090097 1.2313266564383258 0.013897324704434307
| 11> C -1.7537033641922821 0.3859745215506718 -0.011282002907376212
| 12> C -1.832281772099425 -1.0064954898606262 -0.01267000306358114
| 13> C -0.6777828413303234 -1.7892019199285787 -0.003566238171342038
| 14> C 0.5702108859938164 -1.1875678422999247 0.004084191818346239
| 15> C 0.6672824992550173 0.21361221533225735 0.002171820739174932
| 16> C -0.48839449294663756 0.9887664705769387 -0.005590859871496113
| 17> O 1.950701667867953 0.6989572879228612 0.0029656044172127125
| 18> C 2.1153056889752757 2.125651371596446 -0.0029350497778593454
| 19> O 1.7028034212498484 -1.9761000453211843 0.007457533244636564
| 20> H -3.777898226123736 0.8053564734788461 -0.6238598107533119
| 21> H -3.4082160784744473 1.2968886859768516 1.0286344949391872
| 22> H -2.791568510661089 2.250005985646779 -0.3250890785263897
| 23> H -2.8038130084690422 -1.4919024110794654 -0.02078587068037367
| 24> H -0.7378058513601656 -2.8732166683524842 -0.006917136303718689
| 25> H -0.41737827137778627 2.070704974564488 -0.008699907164514084
| 26> H 1.6719681277094562 2.5655181244476277 -0.9030456296124764
| 27> H 3.191941500712723 2.297837795366953 -0.002158230257488715
| 28> H 1.669334937876922 2.573313594632394 0.8920097674877744
| 29> H 2.4771615478280724 -1.3937258947736795 0.009836075623522835
| 30> *
| 31>
| 32>                          ****END OF INPUT****

CARTESIAN COORDINATES (ANGSTROEM)
---------------------------------
  C     -2.997572    1.231327    0.013897
  C     -1.753703    0.385975   -0.011282
  C     -1.832282   -1.006495   -0.012670
  C     -0.677783   -1.789202   -0.003566
  C      0.570211   -1.187568    0.004084
  C      0.667282    0.213612    0.002172
  C     -0.488394    0.988766   -0.005591
  O      1.950702    0.698957    0.002966
  C      2.115306    2.125651   -0.002935
  O      1.702803   -1.976100    0.007458
  H     -3.777898    0.805356   -0.623860
  H     -3.408216    1.296889    1.028634
  H     -2.791569    2.250006   -0.325089
  H     -2.803813   -1.491902   -0.020786
  H     -0.737806   -2.873217   -0.006917
  H     -0.417378    2.070705   -0.008700
  H      1.671968    2.565518   -0.903046
  H      3.191942    2.297838   -0.002158
  H      1.669335    2.573314    0.892010
  H      2.477162   -1.393726    0.009836

 Total Charge           Charge          ....    0
 Multiplicity           Mult            ....    1
 Number of Electrons    NEL             ....   74
 Basis Dimension        Dim             ....  370

ORBITAL ENERGIES
----------------

  NO   OCC          E(Eh)            E(eV)
   0   2.0000     -21.708960      -590.7308
   1   2.0000     -21.699978      -590.4864
   2   2.0000     -12.111048      -329.5584
   3   2.0000     -12.106631      -329.4382
   4   2.0000     -12.090065      -328.9874
   5   2.0000     -12.055246      -328.0399
   6   2.0000     -12.047200      -327.8210
   7   2.0000     -12.046264      -327.7955
   8   2.0000     -12.041296      -327.6603
   9   2.0000     -12.032924      -327.4325
  10   2.0000      -1.724542       -46.9272
  11   2.0000      -1.709385       -46.5147
  12   2.0000      -1.388731       -37.7893
  13   2.0000      -1.305762       -35.5316
  14   2.0000      -1.287740       -35.0412
  15   2.0000      -1.228939       -33.4411
  16   2.0000      -1.197582       -32.5879
  17   2.0000      -1.127000       -30.6672
  18   2.0000      -1.110941       -30.2302
  19   2.0000      -1.084170       -29.5018
  20   2.0000      -1.025847       -27.9147
  21   2.0000      -1.007688       -27.4206
  22   2.0000      -0.983431       -26.7605
  23   2.0000      -0.980748       -26.6875
  24   2.0000      -0.944948       -25.7133
  25   2.0000      -0.933961       -25.4144
  26   2.0000      -0.908029       -24.7087
  27   2.0000      -0.890458       -24.2306
  28   2.0000      -0.837219       -22.7819
  29   2.0000      -0.829671       -22.5765
  30   2.0000      -0.827640       -22.5212
  31   2.0000      -0.820976       -22.3399
  32   2.0000      -0.814756       -22.1706
  33   2.0000      -0.799747       -21.7622
  34   2.0000      -0.757089       -20.6014
  35   2.0000      -0.641786       -17.4639
  36   2.0000      -0.632501       -17.2112
  37   0.0000      -0.249277        -6.7832
  38   0.0000      -0.245288        -6.6746
  39   0.0000      -0.199652        -5.4328
  40   0.0000      -0.137500        -3.7416
  41   0.0000      -0.092278        -2.5110

MULLIKEN ATOMIC CHARGES
-----------------------
   0 C :   -0.396595
   1 C :    0.120733
   2 C :   -0.271462
   3 C :   -0.220531
   4 C :    0.128806
   5 C :    0.306331
   6 C :   -0.363513
   7 O :   -0.333660
   8 C :   -0.235733
   9 O :   -0.468749
  10 H :    0.140304
  11 H :    0.139489
  12 H :    0.139921
  13 H :    0.156072
  14 H :    0.153555
  15 H :    0.181056
  16 H :    0.146881
  17 H :    0.159893
  18 H :    0.147005
  19 H :    0.370197
Sum of atomic charges:    0.0000000

LOEWDIN ATOMIC CHARGES
----------------------
   0 C :   -0.255427
   1 C :   -0.187933
   2 C :   -0.141015
   3 C :   -0.134932
   4 C :   -0.256021
   5 C :   -0.239132
   6 C :   -0.116982
   7 O :    0.187828
   8 C :   -0.300466
   9 O :    0.033376
  10 H :    0.130000
  11 H :    0.130868
  12 H :    0.129155
  13 H :    0.152555
  14 H :    0.155508
  15 H :    0.161230
  16 H :    0.115312
  17 H :    0.118796
  18 H :    0.115301
  19 H :    0.201981

  Mayer bond orders larger than 0.100000
B(  0-C ,  1-C ) :   0.9194 B(  0-C , 10-H ) :   0.9827 B(  0-C , 11-H ) :   0.9604
B(  0-C , 12-H ) :   0.9904 B(  1-C ,  2-C ) :   1.4018 B(  1-C ,  6-C ) :   1.3555
B(  2-C ,  3-C ) :   1.4017 B(  2-C , 13-H ) :   0.9853 B(  3-C ,  4-C ) :   1.4470
B(  3-C , 14-H ) :   0.9850 B(  4-C ,  5-C ) :   1.2595 B(  4-C ,  9-O ) :   1.1532
B(  5-C ,  6-C ) :   1.3449 B(  5-C ,  7-O ) :   1.0598 B(  6-C , 15-H ) :   0.9449
B(  7-O ,  8-C ) :   0.9187 B(  8-C , 16-H ) :   0.9707 B(  8-C , 17-H ) :   0.9689
B(  8-C , 18-H ) :   0.9708 B(  9-O , 19-H ) :   0.8418

FINAL SINGLE POINT ENERGY      -461.343287340128

DIPOLE MOMENT
-------------

Method             : SCF
Type of density    : Electron Density
Multiplicity       :   1
Irrep              :   0
Energy             :  -461.3556152681284743 Eh
Relativity type    :
Basis              : AO
                                X                 Y                 Z
Electronic contribution:      4.659852539      -6.013656328      -0.022611124
Nuclear contribution   :     -4.613670233       7.629575160       0.036511195
                        -----------------------------------------
Total Dipole Moment    :      0.046182306       1.615918832       0.013900071
                        -----------------------------------------
Magnitude (a.u.)       :      1.616638392
Magnitude (Debye)      :      4.109168231

Rotational constants in cm-1:             0.062317             0.039046             0.024226
Rotational constants in MHz :          1868.223493          1170.584423           726.275880

                             ****ORCA TERMINATED NORMALLY****
TOTAL RUN TIME: 0 days 0 hours 4 minutes 38 seconds 52 msec
