                         Program Version 6.0.0  -   RELEASE  -
|  1> ! r2scan-3c def2/J RI DEFGRID2 scfconv6 printgap
|  2> %output
|  3>     printlevel normal
|  4> end
|  5> * xyz 0 1
|  6> C 2.3976939571 -0.6535274647 -0.1634535011
|  7> C 1.0972576501 -0.1192546091 0.4217541784
|  8> H 1.1447282619 -0.1732771557 1.5216887888
|  9> C 0.7619598295 1.3104992799 -0.0187956778
| 10> C -0.7622544097 1.3105647601 0.0186413762
| 11> C -1.0983452301 -0.1189931518 -0.4222928471
| 12> H -1.1496190709 -0.1720942527 -1.5220455739
| 13> O 0.0003620251 -0.9325800491 -0.0028266286
| 14> C -2.3967262138 -0.6541593815 0.1668453409
| 15> H 2.351652614 -0.6344866429 -1.2494215996
| 16> H 3.2296691178 -0.0423420059 0.1737386734
| 17> H 2.5516978968 -1.6796811017 0.1580202556
| 18> H 1.2074949195 2.0535949768 0.6371696376
| 19> H 1.116877742 1.4724849413 -1.0375023847
| 20> H -1.1170391938 1.4725021031 1.0373919413
| 21> H -1.2076564201 2.0539395015 -0.637071048
| 22> H -3.2298945091 -0.0426108571 -0.1665433651
| 23> H -2.3468594143 -0.6365559861 1.2526507165
| 24> H -2.5518601807 -1.6798656031 -0.1553681935
| 25> *
| 26>
| 27>                          ****END OF INPUT****

CARTESIAN COORDINATES (ANGSTROEM)
---------------------------------
  C      2.397694   -0.653527   -0.163454
  C      1.097258   -0.119255    0.421754
  H      1.144728   -0.173277    1.521689
  C      0.761960    1.310499   -0.018796
  C     -0.762254    1.310565    0.018641
  C     -1.098345   -0.118993   -0.422293
  H     -1.149619   -0.172094   -1.522046
  O      0.000362   -0.932580   -0.002827
  C     -2.396726   -0.654159    0.166845
  H      2.351653   -0.634487   -1.249422
  H      3.229669   -0.042342    0.173739
  H      2.551698   -1.679681    0.158020
  H      1.207495    2.053595    0.637170
  H      1.116878    1.472485   -1.037502
  H     -1.117039    1.472502    1.037392
  H     -1.207656    2.053940   -0.637071
  H     -3.229895   -0.042611   -0.166543
  H     -2.346859   -0.636556    1.252651
  H     -2.551860   -1.679866   -0.155368

 Total Charge           Charge          ....    0
 Multiplicity           Mult            ....    1
 Number of Electrons    NEL             ....   56
 Basis Dimension        Dim             ....  198

ORBITAL ENERGIES
----------------

  NO   OCC          E(Eh)            E(eV)
   0   2.0000     -18.937581      -515.3178
   1   2.0000     -10.076341      -274.1912
   2   2.0000     -10.076332      -274.1909
   3   2.0000     -10.028950      -272.9016
   4   2.0000     -10.028813      -272.8979
   5   2.0000     -10.014619      -272.5116
   6   2.0000     -10.014593      -272.5109
   7   2.0000      -0.990021       -26.9398
   8   2.0000      -0.752632       -20.4802
   9   2.0000      -0.744925       -20.2705
  10   2.0000      -0.677760       -18.4428
  11   2.0000      -0.607858       -16.5407
  12   2.0000      -0.559108       -15.2141
  13   2.0000      -0.520260       -14.1570
  14   2.0000      -0.470906       -12.8140
  15   2.0000      -0.448111       -12.1937
  16   2.0000      -0.399427       -10.8690
  17   2.0000      -0.396549       -10.7907
  18   2.0000      -0.388048       -10.5593
  19   2.0000      -0.371477       -10.1084
  20   2.0000      -0.353183        -9.6106
  21   2.0000      -0.339388        -9.2352
  22   2.0000      -0.331964        -9.0332
  23   2.0000      -0.310114        -8.4386
  24   2.0000      -0.299506        -8.1500
  25   2.0000      -0.295584        -8.0433
  26   2.0000      -0.277001        -7.5376
  27   2.0000      -0.206835        -5.6283
  28   0.0000       0.080762         2.1976
  29   0.0000       0.097079         2.6416
  30   0.0000       0.108543         2.9536
  31   0.0000       0.115040         3.1304
  32   0.0000       0.128658         3.5010

MULLIKEN ATOMIC CHARGES
-----------------------
   0 C :   -0.496711
   1 C :    0.054013
   2 H :    0.136820
   3 C :   -0.331531
   4 C :   -0.331662
   5 C :    0.054074
   6 H :    0.136847
   7 O :   -0.258536
   8 C :   -0.496763
   9 H :    0.149736
  10 H :    0.141279
  11 H :    0.155296
  12 H :    0.155636
  13 H :    0.164776
  14 H :    0.164808
  15 H :    0.155652
  16 H :    0.141288
  17 H :    0.149682
  18 H :    0.155296
Sum of atomic charges:   -0.0000000

LOEWDIN ATOMIC CHARGES
----------------------
   0 C :   -0.387064
   1 C :    0.064121
   2 H :    0.164876
   3 C :   -0.266934
   4 C :   -0.266997
   5 C :    0.064097
   6 H :    0.164950
   7 O :   -0.750247
   8 C :   -0.387147
   9 H :    0.157728
  10 H :    0.156734
  11 H :    0.160287
  12 H :    0.163242
  13 H :    0.162231
  14 H :    0.162219
  15 H :    0.163244
  16 H :    0.156715
  17 H :    0.157689
  18 H :    0.160256

  Mayer bond orders larger than 0.100000
B(  0-C ,  1-C ) :   0.9504 B(  0-C ,  9-H ) :   0.9864 B(  0-C , 10-H ) :   0.9738
B(  0-C , 11-H ) :   0.9711 B(  1-C ,  2-H ) :   0.9121 B(  1-C ,  3-C ) :   0.9256
B(  1-C ,  7-O ) :   0.8221 B(  3-C ,  4-C ) :   0.8702 B(  3-C , 12-H ) :   0.9673
B(  3-C , 13-H ) :   0.9986 B(  4-C ,  5-C ) :   0.9257 B(  4-C , 14-H ) :   0.9986
B(  4-C , 15-H ) :   0.9672 B(  5-C ,  6-H ) :   0.9121 B(  5-C ,  7-O ) :   0.8230
B(  5-C ,  8-C ) :   0.9507 B(  8-C , 16-H ) :   0.9738 B(  8-C , 17-H ) :   0.9864
B(  8-C , 18-H ) :   0.9712

Dispersion correction           -0.004970469
FINAL SINGLE POINT ENERGY      -310.996987840068

DIPOLE MOMENT
-------------

Method             : SCF
Type of density    : Electron Density
Multiplicity       :   1
Irrep              :   0
Energy             :  -311.0020641051219172 Eh
Relativity type    :
Basis              : AO
                                X                 Y                 Z
Electronic contribution:      0.000466045      -1.239415359      -0.010296761
Nuclear contribution   :     -0.000752889       1.854622975       0.011880130
                        -----------------------------------------
Total Dipole Moment    :     -0.000286845       0.615207617       0.001583369
                        -----------------------------------------
Magnitude (a.u.)       :      0.615209721
Magnitude (Debye)      :      1.563738839

Rotational constants in cm-1:             0.166765             0.067376             0.052752
Rotational constants in MHz :          4999.484640          2019.884090          1581.469889

                             ****ORCA TERMINATED NORMALLY****
TOTAL RUN TIME: 0 days 0 hours 0 minutes 23 seconds 241 msec
