                         Program Version 6.0.0  -   RELEASE  -
|  1> ! r2scan-3c def2/J RI DEFGRID2 scfconv6 printgap
|  2> %output
|  3>     printlevel normal
|  4> end
|  5> %cpcm
|  6>     smd true
|  7>     smdsolvent "water"
|  8> end
|  9> * xyz 0 1
| 10> C 2.3976939571 -0.6535274647 -0.1634535011
| 11> C 1.0972576501 -0.1192546091 0.4217541784
| 12> H 1.1447282619 -0.1732771557 1.5216887888
| 13> C 0.7619598295 1.3104992799 -0.0187956778
| 14> C -0.7622544097 1.3105647601 0.0186413762
| 15> C -1.0983452301 -0.1189931518 -0.4222928471
| 16> H -1.1496190709 -0.1720942527 -1.5220455739
| 17> O 0.0003620251 -0.9325800491 -0.0028266286
| 18> C -2.3967262138 -0.6541593815 0.1668453409
| 19> H 2.351652614 -0.6344866429 -1.2494215996
| 20> H 3.2296691178 -0.0423420059 0.1737386734
| 21> H 2.5516978968 -1.6796811017 0.1580202556
| 22> H 1.2074949195 2.0535949768 0.6371696376
| 23> H 1.116877742 1.4724849413 -1.0375023847
| 24> H -1.1170391938 1.4725021031 1.0373919413
| 25> H -1.2076564201 2.0539395015 -0.637071048
| 26> H -3.2298945091 -0.0426108571 -0.1665433651
| 27> H -2.3468594143 -0.6365559861 1.2526507165
| 28> H -2.5518601807 -1.6798656031 -0.1553681935
| 29> *
| 30>
| 31>                          ****END OF INPUT****

CARTESIAN COORDINATES (ANGSTROEM)
---------------------------------
  C      2.397694   -0.653527   -0.163454
  C      1.097258   -0.119255    0.421754
  H      1.144728   -0.173277    1.521689
  C      0.761960    1.310499   -0.018796
  C     -0.762254    1.310565    0.018641
  C     -1.098345   -0.118993   -0.422293
  H     -1.149619   -0.172094   -1.522046
  O      0.000362   -0.932580   -0.002827
  C     -2.396726   -0.654159    0.166845
  H      2.351653   -0.634487   -1.249422
  H      3.229669   -0.042342    0.173739
  H      2.551698   -1.679681    0.158020
  H      1.207495    2.053595    0.637170
  H      1.116878    1.472485   -1.037502
  H     -1.117039    1.472502    1.037392
  H     -1.207656    2.053940   -0.637071
  H     -3.229895   -0.042611   -0.166543
  H     -2.346859   -0.636556    1.252651
  H     -2.551860   -1.679866   -0.155368

 Total Charge           Charge          ....    0
 Multiplicity           Mult            ....    1
 Number of Electrons    NEL             ....   56
 Basis Dimension        Dim             ....  198

ORBITAL ENERGIES
----------------

  NO   OCC          E(Eh)            E(eV)
   0   2.0000     -18.946508      -515.5607
   1   2.0000     -10.073780      -274.1215
   2   2.0000     -10.073775      -274.1213
   3   2.0000     -10.019679      -272.6493
   4   2.0000     -10.019542      -272.6456
   5   2.0000     -10.010556      -272.4011
   6   2.0000     -10.010524      -272.4002
   7   2.0000      -0.996928       -27.1278
   8   2.0000      -0.746687       -20.3184
   9   2.0000      -0.742480       -20.2039
  10   2.0000      -0.673808       -18.3353
  11   2.0000      -0.602879       -16.4052
  12   2.0000      -0.555527       -15.1167
  13   2.0000      -0.516734       -14.0610
  14   2.0000      -0.467958       -12.7338
  15   2.0000      -0.445401       -12.1200
  16   2.0000      -0.394565       -10.7367
  17   2.0000      -0.392828       -10.6894
  18   2.0000      -0.382064       -10.3965
  19   2.0000      -0.367166        -9.9911
  20   2.0000      -0.351978        -9.5778
  21   2.0000      -0.333460        -9.0739
  22   2.0000      -0.328482        -8.9385
  23   2.0000      -0.308620        -8.3980
  24   2.0000      -0.291321        -7.9273
  25   2.0000      -0.290411        -7.9025
  26   2.0000      -0.280767        -7.6400
  27   2.0000      -0.213315        -5.8046
  28   0.0000       0.085026         2.3137
  29   0.0000       0.103721         2.8224
  30   0.0000       0.112196         3.0530
  31   0.0000       0.122720         3.3394
  32   0.0000       0.136193         3.7060

MULLIKEN ATOMIC CHARGES
-----------------------
   0 C :   -0.545016
   1 C :    0.067793
   2 H :    0.148549
   3 C :   -0.343249
   4 C :   -0.343210
   5 C :    0.067808
   6 H :    0.148544
   7 O :   -0.337082
   8 C :   -0.545083
   9 H :    0.163241
  10 H :    0.163642
  11 H :    0.162598
  12 H :    0.172914
  13 H :    0.178083
  14 H :    0.178116
  15 H :    0.172909
  16 H :    0.163625
  17 H :    0.163225
  18 H :    0.162591
Sum of atomic charges:    0.0000000

LOEWDIN ATOMIC CHARGES
----------------------
   0 C :   -0.395663
   1 C :    0.064554
   2 H :    0.170423
   3 C :   -0.265064
   4 C :   -0.265118
   5 C :    0.064534
   6 H :    0.170475
   7 O :   -0.794315
   8 C :   -0.395736
   9 H :    0.160426
  10 H :    0.165597
  11 H :    0.160143
  12 H :    0.170140
  13 H :    0.166695
  14 H :    0.166699
  15 H :    0.170129
  16 H :    0.165568
  17 H :    0.160407
  18 H :    0.160107

  Mayer bond orders larger than 0.100000
B(  0-C ,  1-C ) :   0.9372 B(  0-C ,  9-H ) :   0.9827 B(  0-C , 10-H ) :   0.9678
B(  0-C , 11-H ) :   0.9696 B(  1-C ,  2-H ) :   0.9103 B(  1-C ,  3-C ) :   0.9261
B(  1-C ,  7-O ) :   0.8191 B(  3-C ,  4-C ) :   0.8598 B(  3-C , 12-H ) :   0.9624
B(  3-C , 13-H ) :   0.9957 B(  4-C ,  5-C ) :   0.9262 B(  4-C , 14-H ) :   0.9957
B(  4-C , 15-H ) :   0.9623 B(  5-C ,  6-H ) :   0.9103 B(  5-C ,  7-O ) :   0.8200
B(  5-C ,  8-C ) :   0.9375 B(  8-C , 16-H ) :   0.9678 B(  8-C , 17-H ) :   0.9827
B(  8-C , 18-H ) :   0.9696

Dispersion correction           -0.004970469
FINAL SINGLE POINT ENERGY      -311.000563852561

DIPOLE MOMENT
-------------

Method             : SCF
Type of density    : Electron Density
Multiplicity       :   1
Irrep              :   0
Energy             :  -311.0056401176148029 Eh
Relativity type    :
Basis              : AO
                                X                 Y                 Z
Electronic contribution:      0.000208545      -0.888378244      -0.009236751
Nuclear contribution   :     -0.000752889       1.854622975       0.011880130
                        -----------------------------------------
Total Dipole Moment    :     -0.000544345       0.966244731       0.002643379
                        -----------------------------------------
Magnitude (a.u.)       :      0.966248501
Magnitude (Debye)      :      2.456008506

Rotational constants in cm-1:             0.166765             0.067376             0.052752
Rotational constants in MHz :          4999.484640          2019.884090          1581.469889

                             ****ORCA TERMINATED NORMALLY****
TOTAL RUN TIME: 0 days 0 hours 0 minutes 30 seconds 573 msec
