                         Program Version 6.0.0  -   RELEASE  -
|  1> ! pbe def2-sv(p) def2/J RI DEFGRID1 loosescf d4 GCP(DFT/SV(P)) printgap
|  2> %output
|  3>     printlevel normal
|  4> end
|  5> * xyz 0 1
|  6> C -2.8306970821 1.0205570183 0.0002449357
|  7> O -2.2152944314 -0.2536416187 -5.55543e-05
|  8> C -0.8525315806 -0.3260620827 -0.0001448603
|  9> C -0.3135421911 -1.6125473569 -0.0001390769
| 10> C 1.0556141569 -1.7845790223 7.97232e-05
| 11> C 1.9063270188 -0.6942003942 0.0001811357
| 12> C 1.3718072532 0.5885278641 -2.90478e-05
| 13> C -0.0069246526 0.7757649827 -0.0001791643
| 14> O 2.2335006604 1.6401959856 -4.41989e-05
| 15> H -3.8997681686 0.8211936205 -5.03771e-05
| 16> H -2.563842271 1.5883688146 -0.8949772389
| 17> H -2.5640891752 1.5877661577 0.8959382629
| 18> H -0.9884976456 -2.4526344759 -0.0001745184
| 19> H 1.4677920452 -2.7813685198 0.0002851421
| 20> H 2.9774127141 -0.8126586889 0.000450513
| 21> H -0.4025168891 1.7796295884 -0.0002147314
| 22> H 1.7513103721 2.4810219697 0.0001638187
| 23> *
| 24>
| 25>                          ****END OF INPUT****

CARTESIAN COORDINATES (ANGSTROEM)
---------------------------------
  C     -2.830697    1.020557    0.000245
  O     -2.215294   -0.253642   -0.000056
  C     -0.852532   -0.326062   -0.000145
  C     -0.313542   -1.612547   -0.000139
  C      1.055614   -1.784579    0.000080
  C      1.906327   -0.694200    0.000181
  C      1.371807    0.588528   -0.000029
  C     -0.006925    0.775765   -0.000179
  O      2.233501    1.640196   -0.000044
  H     -3.899768    0.821194   -0.000050
  H     -2.563842    1.588369   -0.894977
  H     -2.564089    1.587766    0.895938
  H     -0.988498   -2.452634   -0.000175
  H      1.467792   -2.781369    0.000285
  H      2.977413   -0.812659    0.000451
  H     -0.402517    1.779630   -0.000215
  H      1.751310    2.481022    0.000164

 Total Charge           Charge          ....    0
 Multiplicity           Mult            ....    1
 Number of Electrons    NEL             ....   66
 Basis Dimension        Dim             ....  142

ORBITAL ENERGIES
----------------

  NO   OCC          E(Eh)            E(eV)
   0   2.0000     -18.785771      -511.1868
   1   2.0000     -18.781122      -511.0603
   2   2.0000      -9.951441      -270.7925
   3   2.0000      -9.949686      -270.7447
   4   2.0000      -9.942792      -270.5571
   5   2.0000      -9.889626      -269.1104
   6   2.0000      -9.888247      -269.0729
   7   2.0000      -9.876603      -268.7560
   8   2.0000      -9.876112      -268.7427
   9   2.0000      -0.967177       -26.3182
  10   2.0000      -0.962068       -26.1792
  11   2.0000      -0.766431       -20.8556
  12   2.0000      -0.680732       -18.5237
  13   2.0000      -0.665902       -18.1201
  14   2.0000      -0.627327       -17.0704
  15   2.0000      -0.559744       -15.2314
  16   2.0000      -0.529607       -14.4113
  17   2.0000      -0.500764       -13.6265
  18   2.0000      -0.468633       -12.7521
  19   2.0000      -0.432968       -11.7817
  20   2.0000      -0.422094       -11.4858
  21   2.0000      -0.421611       -11.4726
  22   2.0000      -0.387616       -10.5476
  23   2.0000      -0.376523       -10.2457
  24   2.0000      -0.362491        -9.8639
  25   2.0000      -0.336958        -9.1691
  26   2.0000      -0.325634        -8.8610
  27   2.0000      -0.316601        -8.6152
  28   2.0000      -0.303686        -8.2637
  29   2.0000      -0.283590        -7.7169
  30   2.0000      -0.263962        -7.1828
  31   2.0000      -0.208964        -5.6862
  32   2.0000      -0.181462        -4.9378
  33   0.0000      -0.021889        -0.5956
  34   0.0000      -0.010499        -0.2857
  35   0.0000       0.018822         0.5122
  36   0.0000       0.045906         1.2492
  37   0.0000       0.059104         1.6083

MULLIKEN ATOMIC CHARGES
-----------------------
   0 C :   -0.113468
   1 O :   -0.269733
   2 C :    0.264147
   3 C :   -0.113723
   4 C :   -0.057873
   5 C :   -0.123392
   6 C :    0.251064
   7 C :   -0.306834
   8 O :   -0.334738
   9 H :    0.127257
  10 H :    0.109014
  11 H :    0.109007
  12 H :    0.038823
  13 H :    0.054887
  14 H :    0.039575
  15 H :    0.011005
  16 H :    0.314983
Sum of atomic charges:    0.0000000

LOEWDIN ATOMIC CHARGES
----------------------
   0 C :   -0.202546
   1 O :   -0.091302
   2 C :    0.038464
   3 C :   -0.169806
   4 C :   -0.108478
   5 C :   -0.174039
   6 C :    0.030551
   7 C :   -0.228854
   8 O :   -0.234140
   9 H :    0.123439
  10 H :    0.108522
  11 H :    0.108528
  12 H :    0.128334
  13 H :    0.125796
  14 H :    0.128840
  15 H :    0.120461
  16 H :    0.296230

  Mayer bond orders larger than 0.100000
B(  0-C ,  1-O ) :   0.9926 B(  0-C ,  9-H ) :   0.9587 B(  0-C , 10-H ) :   0.9410
B(  0-C , 11-H ) :   0.9410 B(  1-O ,  2-C ) :   1.1321 B(  2-C ,  3-C ) :   1.3585
B(  2-C ,  7-C ) :   1.2883 B(  3-C ,  4-C ) :   1.3647 B(  3-C , 12-H ) :   0.9654
B(  4-C ,  5-C ) :   1.3433 B(  4-C , 13-H ) :   0.9646 B(  5-C ,  6-C ) :   1.3821
B(  5-C , 14-H ) :   0.9662 B(  6-C ,  7-C ) :   1.2672 B(  6-C ,  8-O ) :   1.1819
B(  7-C , 15-H ) :   0.9452 B(  8-O , 16-H ) :   0.8423

Dispersion correction           -0.016533838
FINAL SINGLE POINT ENERGY      -421.092831781859

DIPOLE MOMENT
-------------

Method             : SCF
Type of density    : Electron Density
Multiplicity       :   1
Irrep              :   0
Energy             :  -421.1516436920063029 Eh
Relativity type    :
Basis              : AO
                                X                 Y                 Z
Electronic contribution:      3.388377472      -1.175440957      -0.001020160
Nuclear contribution   :     -3.960872217       2.095133242       0.001331541
                        -----------------------------------------
Total Dipole Moment    :     -0.572494745       0.919692285       0.000311381
                        -----------------------------------------
Magnitude (a.u.)       :      1.083320926
Magnitude (Debye)      :      2.753582963

Rotational constants in cm-1:             0.095885             0.043261             0.029982
Rotational constants in MHz :          2874.545436          1296.928093           898.846831

                             ****ORCA TERMINATED NORMALLY****
TOTAL RUN TIME: 0 days 0 hours 0 minutes 8 seconds 105 msec
