                         Program Version 6.0.0  -   RELEASE  -
|  1> ! r2scan-3c def2/J RI DEFGRID2 scfconv6 printgap
|  2> %output
|  3>     printlevel normal
|  4> end
|  5> * xyz 0 1
|  6> C -1.6257508082 -0.4984088792 8.808e-07
|  7> C -0.6178352283 0.6521379355 -5.5741e-06
|  8> C 0.7448228869 0.1584461279 1.45762e-05
|  9> C 1.8604277968 -0.2753008911 -4.2942e-06
| 10> H -1.4915741887 -1.1207223315 0.8819173688
| 11> H -1.4916089715 -1.1207154354 -0.8819257623
| 12> H -2.6396470806 -0.1059757584 2.05184e-05
| 13> H -0.7645140167 1.2759131464 0.8858433799
| 14> H -0.764493194 1.2758466531 -0.8858974487
| 15> H 2.8422006396 -0.6437445185 -2.46529e-05
| 16> *
| 17>
| 18>                          ****END OF INPUT****

CARTESIAN COORDINATES (ANGSTROEM)
---------------------------------
  C     -1.625751   -0.498409    0.000001
  C     -0.617835    0.652138   -0.000006
  C      0.744823    0.158446    0.000015
  C      1.860428   -0.275301   -0.000004
  H     -1.491574   -1.120722    0.881917
  H     -1.491609   -1.120715   -0.881926
  H     -2.639647   -0.105976    0.000021
  H     -0.764514    1.275913    0.885843
  H     -0.764493    1.275847   -0.885897
  H      2.842201   -0.643745   -0.000025

 Total Charge           Charge          ....    0
 Multiplicity           Mult            ....    1
 Number of Electrons    NEL             ....   30
 Basis Dimension        Dim             ....  106

ORBITAL ENERGIES
----------------

  NO   OCC          E(Eh)            E(eV)
   0   2.0000     -10.059177      -273.7241
   1   2.0000     -10.030647      -272.9478
   2   2.0000     -10.030519      -272.9443
   3   2.0000     -10.016396      -272.5600
   4   2.0000      -0.772687       -21.0259
   5   2.0000      -0.694326       -18.8936
   6   2.0000      -0.612544       -16.6682
   7   2.0000      -0.497787       -13.5455
   8   2.0000      -0.440122       -11.9763
   9   2.0000      -0.434844       -11.8327
  10   2.0000      -0.374441       -10.1891
  11   2.0000      -0.344505        -9.3745
  12   2.0000      -0.337853        -9.1935
  13   2.0000      -0.245010        -6.6671
  14   2.0000      -0.244286        -6.6473
  15   0.0000       0.024386         0.6636
  16   0.0000       0.028216         0.7678
  17   0.0000       0.089789         2.4433
  18   0.0000       0.130791         3.5590
  19   0.0000       0.134182         3.6513

MULLIKEN ATOMIC CHARGES
-----------------------
   0 C :   -0.431633
   1 C :   -0.420834
   2 C :    0.066795
   3 C :   -0.147978
   4 H :    0.150710
   5 H :    0.150711
   6 H :    0.150741
   7 H :    0.162043
   8 H :    0.162043
   9 H :    0.157402
Sum of atomic charges:   -0.0000000

LOEWDIN ATOMIC CHARGES
----------------------
   0 C :   -0.400847
   1 C :   -0.285670
   2 C :   -0.084518
   3 C :   -0.218145
   4 H :    0.157136
   5 H :    0.157136
   6 H :    0.150397
   7 H :    0.172768
   8 H :    0.172768
   9 H :    0.178974

  Mayer bond orders larger than 0.100000
B(  0-C ,  1-C ) :   0.9154 B(  0-C ,  4-H ) :   0.9717 B(  0-C ,  5-H ) :   0.9717
B(  0-C ,  6-H ) :   0.9752 B(  1-C ,  2-C ) :   0.9767 B(  1-C ,  7-H ) :   0.9858
B(  1-C ,  8-H ) :   0.9858 B(  2-C ,  3-C ) :   2.6512 B(  3-C ,  9-H ) :   1.0368

Dispersion correction           -0.001760990
FINAL SINGLE POINT ENERGY      -155.910663436568

DIPOLE MOMENT
-------------

Method             : SCF
Type of density    : Electron Density
Multiplicity       :   1
Irrep              :   0
Energy             :  -155.9123008872767571 Eh
Relativity type    :
Basis              : AO
                                X                 Y                 Z
Electronic contribution:      3.695350810       0.484621665       0.000041230
Nuclear contribution   :     -4.043182987      -0.412231374      -0.000062479
                        -----------------------------------------
Total Dipole Moment    :     -0.347832177       0.072390291      -0.000021249
                        -----------------------------------------
Magnitude (a.u.)       :      0.355285207
Magnitude (Debye)      :      0.903063228

Rotational constants in cm-1:             0.901639             0.155304             0.139385
Rotational constants in MHz :         27030.463048          4655.892978          4178.670409

                             ****ORCA TERMINATED NORMALLY****
TOTAL RUN TIME: 0 days 0 hours 0 minutes 9 seconds 52 msec
