                         Program Version 6.0.0  -   RELEASE  -
|  1> ! r2scan-3c def2/J RI DEFGRID2 scfconv6 printgap
|  2> %output
|  3>     printlevel normal
|  4> end
|  5> %cpcm
|  6>     smd true
|  7>     smdsolvent "water"
|  8> end
|  9> * xyz 0 1
| 10> C -1.6257508082 -0.4984088792 8.808e-07
| 11> C -0.6178352283 0.6521379355 -5.5741e-06
| 12> C 0.7448228869 0.1584461279 1.45762e-05
| 13> C 1.8604277968 -0.2753008911 -4.2942e-06
| 14> H -1.4915741887 -1.1207223315 0.8819173688
| 15> H -1.4916089715 -1.1207154354 -0.8819257623
| 16> H -2.6396470806 -0.1059757584 2.05184e-05
| 17> H -0.7645140167 1.2759131464 0.8858433799
| 18> H -0.764493194 1.2758466531 -0.8858974487
| 19> H 2.8422006396 -0.6437445185 -2.46529e-05
| 20> *
| 21>
| 22>                          ****END OF INPUT****

CARTESIAN COORDINATES (ANGSTROEM)
---------------------------------
  C     -1.625751   -0.498409    0.000001
  C     -0.617835    0.652138   -0.000006
  C      0.744823    0.158446    0.000015
  C      1.860428   -0.275301   -0.000004
  H     -1.491574   -1.120722    0.881917
  H     -1.491609   -1.120715   -0.881926
  H     -2.639647   -0.105976    0.000021
  H     -0.764514    1.275913    0.885843
  H     -0.764493    1.275847   -0.885897
  H      2.842201   -0.643745   -0.000025

 Total Charge           Charge          ....    0
 Multiplicity           Mult            ....    1
 Number of Electrons    NEL             ....   30
 Basis Dimension        Dim             ....  106

ORBITAL ENERGIES
----------------

  NO   OCC          E(Eh)            E(eV)
   0   2.0000     -10.050234      -273.4808
   1   2.0000     -10.037352      -273.1302
   2   2.0000     -10.020185      -272.6631
   3   2.0000     -10.020128      -272.6616
   4   2.0000      -0.769262       -20.9327
   5   2.0000      -0.697157       -18.9706
   6   2.0000      -0.605770       -16.4838
   7   2.0000      -0.495301       -13.4778
   8   2.0000      -0.434745       -11.8300
   9   2.0000      -0.425507       -11.5786
  10   2.0000      -0.367767       -10.0074
  11   2.0000      -0.334511        -9.1025
  12   2.0000      -0.328622        -8.9423
  13   2.0000      -0.252619        -6.8741
  14   2.0000      -0.251283        -6.8378
  15   0.0000       0.020932         0.5696
  16   0.0000       0.024562         0.6684
  17   0.0000       0.092410         2.5146
  18   0.0000       0.139668         3.8006
  19   0.0000       0.141732         3.8567

MULLIKEN ATOMIC CHARGES
-----------------------
   0 C :   -0.470122
   1 C :   -0.407871
   2 C :    0.000587
   3 C :   -0.189154
   4 H :    0.160173
   5 H :    0.160176
   6 H :    0.169806
   7 H :    0.185916
   8 H :    0.185916
   9 H :    0.204572
Sum of atomic charges:   -0.0000000

LOEWDIN ATOMIC CHARGES
----------------------
   0 C :   -0.405251
   1 C :   -0.285571
   2 C :   -0.096911
   3 C :   -0.250621
   4 H :    0.158792
   5 H :    0.158792
   6 H :    0.158190
   7 H :    0.183178
   8 H :    0.183178
   9 H :    0.196226

  Mayer bond orders larger than 0.100000
B(  0-C ,  1-C ) :   0.8953 B(  0-C ,  4-H ) :   0.9716 B(  0-C ,  5-H ) :   0.9716
B(  0-C ,  6-H ) :   0.9696 B(  1-C ,  2-C ) :   0.9828 B(  1-C ,  7-H ) :   0.9743
B(  1-C ,  8-H ) :   0.9743 B(  2-C ,  3-C ) :   2.5868 B(  3-C ,  9-H ) :   1.0399

Dispersion correction           -0.001760990
FINAL SINGLE POINT ENERGY      -155.911705393074

DIPOLE MOMENT
-------------

Method             : SCF
Type of density    : Electron Density
Multiplicity       :   1
Irrep              :   0
Energy             :  -155.9133428437825728 Eh
Relativity type    :
Basis              : AO
                                X                 Y                 Z
Electronic contribution:      3.555725353       0.550171873       0.000034116
Nuclear contribution   :     -4.043182987      -0.412231374      -0.000062479
                        -----------------------------------------
Total Dipole Moment    :     -0.487457634       0.137940498      -0.000028363
                        -----------------------------------------
Magnitude (a.u.)       :      0.506598980
Magnitude (Debye)      :      1.287672275

Rotational constants in cm-1:             0.901639             0.155304             0.139385
Rotational constants in MHz :         27030.463048          4655.892978          4178.670409

                             ****ORCA TERMINATED NORMALLY****
TOTAL RUN TIME: 0 days 0 hours 0 minutes 10 seconds 468 msec
