                         Program Version 6.0.0  -   RELEASE  -
|  1> ! pbe def2-sv(p) def2/J RI DEFGRID1 loosescf d4 GCP(DFT/SV(P)) printgap
|  2> %output
|  3>     printlevel normal
|  4> end
|  5> * xyz 0 1
|  6> C 1.9018587212 -1.049086855 0.0796413067
|  7> C 1.1020733428 0.1862205297 0.4829844312
|  8> C -0.3656707688 0.2020300659 0.0046267851
|  9> C -1.0281292849 1.5005567621 0.4750355909
| 10> C -1.1468587805 -0.999739902 0.5461954068
| 11> O -0.4305191114 0.2305593166 -1.4191844668
| 12> H 2.9268864639 -0.9451744917 0.4271123358
| 13> H 1.9270513919 -1.1620880995 -1.0018110023
| 14> H 1.4867912305 -1.9511542735 0.5209800567
| 15> H 1.5906567367 1.0714641515 0.0694334271
| 16> H 1.1045975536 0.278392463 1.5699093798
| 17> H -0.4870223002 2.3546945815 0.0767386631
| 18> H -2.0496784443 1.5426146247 0.1067661948
| 19> H -1.0341859541 1.5525898611 1.5590512033
| 20> H -2.1890618935 -0.9221174599 0.2455084052
| 21> H -0.7474033729 -1.9324700483 0.1561400816
| 22> H -1.0946825504 -1.0218461144 1.63069515
| 23> H -0.1206512039 -0.6178744615 -1.7621268394
| 24> *
| 25>
| 26>                          ****END OF INPUT****

CARTESIAN COORDINATES (ANGSTROEM)
---------------------------------
  C      1.901859   -1.049087    0.079641
  C      1.102073    0.186221    0.482984
  C     -0.365671    0.202030    0.004627
  C     -1.028129    1.500557    0.475036
  C     -1.146859   -0.999740    0.546195
  O     -0.430519    0.230559   -1.419184
  H      2.926886   -0.945174    0.427112
  H      1.927051   -1.162088   -1.001811
  H      1.486791   -1.951154    0.520980
  H      1.590657    1.071464    0.069433
  H      1.104598    0.278392    1.569909
  H     -0.487022    2.354695    0.076739
  H     -2.049678    1.542615    0.106766
  H     -1.034186    1.552590    1.559051
  H     -2.189062   -0.922117    0.245508
  H     -0.747403   -1.932470    0.156140
  H     -1.094683   -1.021846    1.630695
  H     -0.120651   -0.617874   -1.762127

 Total Charge           Charge          ....    0
 Multiplicity           Mult            ....    1
 Number of Electrons    NEL             ....   50
 Basis Dimension        Dim             ....  108

ORBITAL ENERGIES
----------------

  NO   OCC          E(Eh)            E(eV)
   0   2.0000     -18.736678      -509.8509
   1   2.0000      -9.944103      -270.5928
   2   2.0000      -9.881206      -268.8813
   3   2.0000      -9.878824      -268.8165
   4   2.0000      -9.873934      -268.6834
   5   2.0000      -9.867323      -268.5035
   6   2.0000      -0.914964       -24.8974
   7   2.0000      -0.715194       -19.4614
   8   2.0000      -0.662185       -18.0190
   9   2.0000      -0.617054       -16.7909
  10   2.0000      -0.559547       -15.2261
  11   2.0000      -0.504505       -13.7283
  12   2.0000      -0.438998       -11.9457
  13   2.0000      -0.411691       -11.2027
  14   2.0000      -0.393692       -10.7129
  15   2.0000      -0.388057       -10.5596
  16   2.0000      -0.355256        -9.6670
  17   2.0000      -0.344487        -9.3740
  18   2.0000      -0.334394        -9.0993
  19   2.0000      -0.320635        -8.7249
  20   2.0000      -0.309389        -8.4189
  21   2.0000      -0.300274        -8.1709
  22   2.0000      -0.290703        -7.9104
  23   2.0000      -0.263187        -7.1617
  24   2.0000      -0.210467        -5.7271
  25   0.0000       0.020344         0.5536
  26   0.0000       0.057537         1.5657
  27   0.0000       0.072612         1.9759
  28   0.0000       0.079190         2.1549
  29   0.0000       0.079926         2.1749

MULLIKEN ATOMIC CHARGES
-----------------------
   0 C :   -0.288497
   1 C :   -0.124710
   2 C :   -0.061253
   3 C :   -0.198508
   4 C :   -0.238326
   5 O :   -0.424754
   6 H :    0.108087
   7 H :    0.085812
   8 H :    0.106391
   9 H :    0.084174
  10 H :    0.075773
  11 H :    0.100387
  12 H :    0.100397
  13 H :    0.091317
  14 H :    0.104406
  15 H :    0.092455
  16 H :    0.093418
  17 H :    0.293430
Sum of atomic charges:   -0.0000000

LOEWDIN ATOMIC CHARGES
----------------------
   0 C :   -0.348013
   1 C :   -0.235014
   2 C :   -0.016731
   3 C :   -0.324766
   4 C :   -0.339309
   5 O :   -0.321874
   6 H :    0.125082
   7 H :    0.110400
   8 H :    0.117187
   9 H :    0.118884
  10 H :    0.116646
  11 H :    0.121998
  12 H :    0.121424
  13 H :    0.119633
  14 H :    0.122455
  15 H :    0.112784
  16 H :    0.122092
  17 H :    0.277120

  Mayer bond orders larger than 0.100000
B(  0-C ,  1-C ) :   1.1525 B(  0-C ,  6-H ) :   0.9494 B(  0-C ,  7-H ) :   0.9430
B(  0-C ,  8-H ) :   0.9470 B(  1-C ,  2-C ) :   1.0333 B(  1-C ,  9-H ) :   0.9148
B(  1-C , 10-H ) :   0.9126 B(  2-C ,  3-C ) :   1.0865 B(  2-C ,  4-C ) :   1.0820
B(  2-C ,  5-O ) :   1.0249 B(  3-C , 11-H ) :   0.9416 B(  3-C , 12-H ) :   0.9422
B(  3-C , 13-H ) :   0.9463 B(  4-C , 14-H ) :   0.9429 B(  4-C , 15-H ) :   0.9358
B(  4-C , 16-H ) :   0.9402 B(  5-O , 17-H ) :   0.8486

Dispersion correction           -0.013615462
FINAL SINGLE POINT ENERGY      -272.308836541931

DIPOLE MOMENT
-------------

Method             : SCF
Type of density    : Electron Density
Multiplicity       :   1
Irrep              :   0
Energy             :  -272.3779200300537582 Eh
Relativity type    :
Basis              : AO
                                X                 Y                 Z
Electronic contribution:     -1.021649106       1.184173949      -3.063384230
Nuclear contribution   :      1.225698997      -1.641150403       3.354823899
                        -----------------------------------------
Total Dipole Moment    :      0.204049891      -0.456976454       0.291439669
                        -----------------------------------------
Magnitude (a.u.)       :      0.579138082
Magnitude (Debye)      :      1.472052019

Rotational constants in cm-1:             0.151482             0.086205             0.084468
Rotational constants in MHz :          4541.303587          2584.363093          2532.272358

                             ****ORCA TERMINATED NORMALLY****
TOTAL RUN TIME: 0 days 0 hours 0 minutes 6 seconds 864 msec
