                         Program Version 6.0.0  -   RELEASE  -
|  1> ! wb97x-v def2-tzvp def2/J RIJCOSX DEFGRID2 scfconv7 GCP(DFT/TZ) printgap
|  2> %output
|  3>     printlevel normal
|  4> end
|  5> * xyz 0 1
|  6> C 0.4074015147155729 1.0834225517557783 -1.1449247393967639
|  7> C 0.37339235781212504 0.17647964546819855 0.0841030794798348
|  8> C 0.9503321604825732 0.9009093727649389 1.29379261387953
|  9> C 1.1377439800537335 -1.1199595420334263 -0.1752884350842787
| 10> O -1.0065700097517696 -0.09966206193182195 0.47321437719431914
| 11> C -1.7706572642275362 -0.8925999382520219 -0.435500748396504
| 12> H 0.022087177356304936 0.5789059880668531 -2.035499193129513
| 13> H -0.18127907298877785 1.9894779567809442 -0.9691496145861591
| 14> H 1.4398783379778821 1.3789905199363368 -1.3546789326671185
| 15> H 1.9909042351161907 1.1793464833869416 1.1067039175443265
| 16> H 0.9173296307339566 0.2578412759027677 2.1789993604310163
| 17> H 0.3814011876991719 1.8124291266142223 1.502952296378284
| 18> H 1.0358649024215676 -1.805641522277143 0.672571781166177
| 19> H 0.7896371849522649 -1.6231748927694774 -1.0819084865892097
| 20> H 2.200106452308632 -0.8943260223659406 -0.30817164118904283
| 21> H -1.3910515144269742 -1.9198050010894456 -0.5075757320522293
| 22> H -1.8114344220484513 -0.45434697633225407 -1.440883422987716
| 23> H -2.786477362857987 -0.9272440719539672 -0.03260268134231545
| 24> *
| 25>
| 26>                          ****END OF INPUT****

CARTESIAN COORDINATES (ANGSTROEM)
---------------------------------
  C      0.407402    1.083423   -1.144925
  C      0.373392    0.176480    0.084103
  C      0.950332    0.900909    1.293793
  C      1.137744   -1.119960   -0.175288
  O     -1.006570   -0.099662    0.473214
  C     -1.770657   -0.892600   -0.435501
  H      0.022087    0.578906   -2.035499
  H     -0.181279    1.989478   -0.969150
  H      1.439878    1.378991   -1.354679
  H      1.990904    1.179346    1.106704
  H      0.917330    0.257841    2.178999
  H      0.381401    1.812429    1.502952
  H      1.035865   -1.805642    0.672572
  H      0.789637   -1.623175   -1.081908
  H      2.200106   -0.894326   -0.308172
  H     -1.391052   -1.919805   -0.507576
  H     -1.811434   -0.454347   -1.440883
  H     -2.786477   -0.927244   -0.032603

 Total Charge           Charge          ....    0
 Multiplicity           Mult            ....    1
 Number of Electrons    NEL             ....   50
 Basis Dimension        Dim             ....  258

ORBITAL ENERGIES
----------------

  NO   OCC          E(Eh)            E(eV)
   0   2.0000     -21.662972      -589.4794
   1   2.0000     -12.102544      -329.3270
   2   2.0000     -12.080494      -328.7269
   3   2.0000     -12.035314      -327.4975
   4   2.0000     -12.033972      -327.4610
   5   2.0000     -12.029713      -327.3451
   6   2.0000      -1.662151       -45.2294
   7   2.0000      -1.321042       -35.9474
   8   2.0000      -1.203631       -32.7525
   9   2.0000      -1.185946       -32.2712
  10   2.0000      -1.174989       -31.9731
  11   2.0000      -1.055491       -28.7214
  12   2.0000      -0.963564       -26.2199
  13   2.0000      -0.948286       -25.8042
  14   2.0000      -0.947478       -25.7822
  15   2.0000      -0.867554       -23.6073
  16   2.0000      -0.864064       -23.5124
  17   2.0000      -0.830398       -22.5963
  18   2.0000      -0.813032       -22.1237
  19   2.0000      -0.810383       -22.0516
  20   2.0000      -0.802616       -21.8403
  21   2.0000      -0.798144       -21.7186
  22   2.0000      -0.793013       -21.5790
  23   2.0000      -0.776043       -21.1172
  24   2.0000      -0.766154       -20.8481
  25   0.0000      -0.168204        -4.5771
  26   0.0000      -0.101820        -2.7707
  27   0.0000      -0.028113        -0.7650
  28   0.0000      -0.013148        -0.3578
  29   0.0000      -0.011388        -0.3099

MULLIKEN ATOMIC CHARGES
-----------------------
   0 C :   -0.361674
   1 C :    0.194090
   2 C :   -0.316390
   3 C :   -0.380119
   4 O :   -0.294030
   5 C :   -0.196894
   6 H :    0.108377
   7 H :    0.122253
   8 H :    0.111631
   9 H :    0.099689
  10 H :    0.113686
  11 H :    0.115818
  12 H :    0.125590
  13 H :    0.117427
  14 H :    0.114509
  15 H :    0.105741
  16 H :    0.094368
  17 H :    0.125925
Sum of atomic charges:    0.0000000

LOEWDIN ATOMIC CHARGES
----------------------
   0 C :   -0.262784
   1 C :   -0.423127
   2 C :   -0.257334
   3 C :   -0.264428
   4 O :    0.143049
   5 C :   -0.344589
   6 H :    0.117274
   7 H :    0.124926
   8 H :    0.124837
   9 H :    0.120900
  10 H :    0.123353
  11 H :    0.123854
  12 H :    0.125326
  13 H :    0.119680
  14 H :    0.125865
  15 H :    0.097664
  16 H :    0.096705
  17 H :    0.108828

  Mayer bond orders larger than 0.100000
B(  0-C ,  1-C ) :   0.9899 B(  0-C ,  6-H ) :   0.9687 B(  0-C ,  7-H ) :   0.9820
B(  0-C ,  8-H ) :   0.9742 B(  1-C ,  2-C ) :   0.9624 B(  1-C ,  3-C ) :   0.9680
B(  1-C ,  4-O ) :   1.0216 B(  2-C ,  9-H ) :   0.9719 B(  2-C , 10-H ) :   0.9799
B(  2-C , 11-H ) :   0.9801 B(  3-C , 12-H ) :   0.9819 B(  3-C , 13-H ) :   0.9746
B(  3-C , 14-H ) :   0.9717 B(  4-O ,  5-C ) :   1.0004 B(  5-C , 15-H ) :   0.9773
B(  5-C , 16-H ) :   0.9698 B(  5-C , 17-H ) :   0.9826

FINAL SINGLE POINT ENERGY      -272.984331482299

DIPOLE MOMENT
-------------

Method             : SCF
Type of density    : Electron Density
Multiplicity       :   1
Irrep              :   0
Energy             :  -272.9976097425991384 Eh
Relativity type    :
Basis              : AO
                                X                 Y                 Z
Electronic contribution:     -2.209314553       0.216917548       1.788699006
Nuclear contribution   :      2.467439086      -0.371282120      -2.217299060
                        -----------------------------------------
Total Dipole Moment    :      0.258124533      -0.154364572      -0.428600054
                        -----------------------------------------
Magnitude (a.u.)       :      0.523597844
Magnitude (Debye)      :      1.330879952

Rotational constants in cm-1:             0.146698             0.090581             0.090342
Rotational constants in MHz :          4397.905075          2715.542916          2708.398447

                             ****ORCA TERMINATED NORMALLY****
TOTAL RUN TIME: 0 days 0 hours 1 minutes 45 seconds 791 msec
