                         Program Version 6.0.0  -   RELEASE  -
|  1> ! wb97x-v def2-tzvp def2/J RIJCOSX DEFGRID2 scfconv7 GCP(DFT/TZ) printgap
|  2> %output
|  3>     printlevel normal
|  4> end
|  5> %cpcm
|  6>     smd true
|  7>     smdsolvent "water"
|  8> end
|  9> * xyz 0 1
| 10> C 0.4074015147155729 1.0834225517557783 -1.1449247393967639
| 11> C 0.37339235781212504 0.17647964546819855 0.0841030794798348
| 12> C 0.9503321604825732 0.9009093727649389 1.29379261387953
| 13> C 1.1377439800537335 -1.1199595420334263 -0.1752884350842787
| 14> O -1.0065700097517696 -0.09966206193182195 0.47321437719431914
| 15> C -1.7706572642275362 -0.8925999382520219 -0.435500748396504
| 16> H 0.022087177356304936 0.5789059880668531 -2.035499193129513
| 17> H -0.18127907298877785 1.9894779567809442 -0.9691496145861591
| 18> H 1.4398783379778821 1.3789905199363368 -1.3546789326671185
| 19> H 1.9909042351161907 1.1793464833869416 1.1067039175443265
| 20> H 0.9173296307339566 0.2578412759027677 2.1789993604310163
| 21> H 0.3814011876991719 1.8124291266142223 1.502952296378284
| 22> H 1.0358649024215676 -1.805641522277143 0.672571781166177
| 23> H 0.7896371849522649 -1.6231748927694774 -1.0819084865892097
| 24> H 2.200106452308632 -0.8943260223659406 -0.30817164118904283
| 25> H -1.3910515144269742 -1.9198050010894456 -0.5075757320522293
| 26> H -1.8114344220484513 -0.45434697633225407 -1.440883422987716
| 27> H -2.786477362857987 -0.9272440719539672 -0.03260268134231545
| 28> *
| 29>
| 30>                          ****END OF INPUT****

CARTESIAN COORDINATES (ANGSTROEM)
---------------------------------
  C      0.407402    1.083423   -1.144925
  C      0.373392    0.176480    0.084103
  C      0.950332    0.900909    1.293793
  C      1.137744   -1.119960   -0.175288
  O     -1.006570   -0.099662    0.473214
  C     -1.770657   -0.892600   -0.435501
  H      0.022087    0.578906   -2.035499
  H     -0.181279    1.989478   -0.969150
  H      1.439878    1.378991   -1.354679
  H      1.990904    1.179346    1.106704
  H      0.917330    0.257841    2.178999
  H      0.381401    1.812429    1.502952
  H      1.035865   -1.805642    0.672572
  H      0.789637   -1.623175   -1.081908
  H      2.200106   -0.894326   -0.308172
  H     -1.391052   -1.919805   -0.507576
  H     -1.811434   -0.454347   -1.440883
  H     -2.786477   -0.927244   -0.032603

 Total Charge           Charge          ....    0
 Multiplicity           Mult            ....    1
 Number of Electrons    NEL             ....   50
 Basis Dimension        Dim             ....  258

ORBITAL ENERGIES
----------------

  NO   OCC          E(Eh)            E(eV)
   0   2.0000     -21.669972      -589.6699
   1   2.0000     -12.099282      -329.2382
   2   2.0000     -12.074862      -328.5737
   3   2.0000     -12.025382      -327.2273
   4   2.0000     -12.025055      -327.2184
   5   2.0000     -12.024550      -327.2046
   6   2.0000      -1.669337       -45.4250
   7   2.0000      -1.317203       -35.8429
   8   2.0000      -1.200883       -32.6777
   9   2.0000      -1.177649       -32.0455
  10   2.0000      -1.170890       -31.8615
  11   2.0000      -1.054711       -28.7001
  12   2.0000      -0.963281       -26.2122
  13   2.0000      -0.952776       -25.9263
  14   2.0000      -0.947743       -25.7894
  15   2.0000      -0.861951       -23.4549
  16   2.0000      -0.858155       -23.3516
  17   2.0000      -0.823558       -22.4102
  18   2.0000      -0.804776       -21.8991
  19   2.0000      -0.803702       -21.8699
  20   2.0000      -0.798709       -21.7340
  21   2.0000      -0.792567       -21.5669
  22   2.0000      -0.787628       -21.4324
  23   2.0000      -0.769483       -20.9387
  24   2.0000      -0.761932       -20.7332
  25   0.0000      -0.165933        -4.5153
  26   0.0000      -0.100584        -2.7370
  27   0.0000      -0.017280        -0.4702
  28   0.0000      -0.005653        -0.1538
  29   0.0000      -0.004368        -0.1189

MULLIKEN ATOMIC CHARGES
-----------------------
   0 C :   -0.416963
   1 C :    0.230067
   2 C :   -0.379431
   3 C :   -0.426688
   4 O :   -0.382252
   5 C :   -0.224733
   6 H :    0.136818
   7 H :    0.129725
   8 H :    0.136501
   9 H :    0.129535
  10 H :    0.128292
  11 H :    0.128633
  12 H :    0.133696
  13 H :    0.141585
  14 H :    0.138974
  15 H :    0.129944
  16 H :    0.123796
  17 H :    0.142501
Sum of atomic charges:   -0.0000000

LOEWDIN ATOMIC CHARGES
----------------------
   0 C :   -0.265982
   1 C :   -0.423547
   2 C :   -0.266606
   3 C :   -0.266166
   4 O :    0.105815
   5 C :   -0.345505
   6 H :    0.123625
   7 H :    0.125013
   8 H :    0.131090
   9 H :    0.128989
  10 H :    0.123666
  11 H :    0.123736
  12 H :    0.126264
  13 H :    0.125345
  14 H :    0.131843
  15 H :    0.105176
  16 H :    0.105549
  17 H :    0.111695

  Mayer bond orders larger than 0.100000
B(  0-C ,  1-C ) :   0.9872 B(  0-C ,  6-H ) :   0.9662 B(  0-C ,  7-H ) :   0.9750
B(  0-C ,  8-H ) :   0.9713 B(  1-C ,  2-C ) :   0.9604 B(  1-C ,  3-C ) :   0.9695
B(  1-C ,  4-O ) :   0.9807 B(  2-C ,  9-H ) :   0.9708 B(  2-C , 10-H ) :   0.9757
B(  2-C , 11-H ) :   0.9757 B(  3-C , 12-H ) :   0.9743 B(  3-C , 13-H ) :   0.9708
B(  3-C , 14-H ) :   0.9688 B(  4-O ,  5-C ) :   0.9666 B(  5-C , 15-H ) :   0.9758
B(  5-C , 16-H ) :   0.9695 B(  5-C , 17-H ) :   0.9746

FINAL SINGLE POINT ENERGY      -272.986666131111

DIPOLE MOMENT
-------------

Method             : SCF
Type of density    : Electron Density
Multiplicity       :   1
Irrep              :   0
Energy             :  -272.9999443914113613 Eh
Relativity type    :
Basis              : AO
                                X                 Y                 Z
Electronic contribution:     -2.036474665       0.127847724       1.521772257
Nuclear contribution   :      2.467439086      -0.371282120      -2.217299060
                        -----------------------------------------
Total Dipole Moment    :      0.430964421      -0.243434396      -0.695526804
                        -----------------------------------------
Magnitude (a.u.)       :      0.853667483
Magnitude (Debye)      :      2.169850302

Rotational constants in cm-1:             0.146698             0.090581             0.090342
Rotational constants in MHz :          4397.905075          2715.542916          2708.398447

                             ****ORCA TERMINATED NORMALLY****
TOTAL RUN TIME: 0 days 0 hours 1 minutes 58 seconds 585 msec
