                         Program Version 6.0.0  -   RELEASE  -
|  1> ! pbe def2-sv(p) def2/J RI DEFGRID1 loosescf d4 GCP(DFT/SV(P)) printgap
|  2> %output
|  3>     printlevel normal
|  4> end
|  5> * xyz 0 1
|  6> C -1.3377945222 0.7772433929 -0.4103311206
|  7> C -1.5392809664 -0.6680707024 0.0377071624
|  8> C -0.12304213 -1.2403226329 0.0236758209
|  9> C 0.7967800004 -0.0739215846 0.4451919748
| 10> C -0.0739991331 1.1998423708 0.3395277702
| 11> O 1.9828872078 -0.0033531052 -0.318507689
| 12> H -2.1886943365 1.41286801 -0.1730254114
| 13> H -1.1739106115 0.8115905448 -1.488288075
| 14> H -1.9398551077 -0.687893689 1.0518714215
| 15> H -2.2141388056 -1.2215702591 -0.6125924155
| 16> H -0.011442804 -2.1022960823 0.6780811172
| 17> H 0.1455952792 -1.5504317292 -0.9878719765
| 18> H 1.1570378196 -0.2092310438 1.4689677349
| 19> H -0.3326449596 1.5483022632 1.3388448147
| 20> H 0.4721362634 1.9968508287 -0.1633296081
| 21> H 1.7482707972 0.1173534397 -1.2496958605
| 22> *
| 23>
| 24>                          ****END OF INPUT****

CARTESIAN COORDINATES (ANGSTROEM)
---------------------------------
  C     -1.337795    0.777243   -0.410331
  C     -1.539281   -0.668071    0.037707
  C     -0.123042   -1.240323    0.023676
  C      0.796780   -0.073922    0.445192
  C     -0.073999    1.199842    0.339528
  O      1.982887   -0.003353   -0.318508
  H     -2.188694    1.412868   -0.173025
  H     -1.173911    0.811591   -1.488288
  H     -1.939855   -0.687894    1.051871
  H     -2.214139   -1.221570   -0.612592
  H     -0.011443   -2.102296    0.678081
  H      0.145595   -1.550432   -0.987872
  H      1.157038   -0.209231    1.468968
  H     -0.332645    1.548302    1.338845
  H      0.472136    1.996851   -0.163330
  H      1.748271    0.117353   -1.249696

 Total Charge           Charge          ....    0
 Multiplicity           Mult            ....    1
 Number of Electrons    NEL             ....   48
 Basis Dimension        Dim             ....  104

ORBITAL ENERGIES
----------------

  NO   OCC          E(Eh)            E(eV)
   0   2.0000     -18.736313      -509.8410
   1   2.0000      -9.930835      -270.2318
   2   2.0000      -9.885024      -268.9852
   3   2.0000      -9.884768      -268.9782
   4   2.0000      -9.880640      -268.8659
   5   2.0000      -9.878592      -268.8102
   6   2.0000      -0.915035       -24.8994
   7   2.0000      -0.751772       -20.4568
   8   2.0000      -0.639180       -17.3930
   9   2.0000      -0.624396       -16.9907
  10   2.0000      -0.521474       -14.1900
  11   2.0000      -0.511432       -13.9168
  12   2.0000      -0.449458       -12.2304
  13   2.0000      -0.439095       -11.9484
  14   2.0000      -0.390185       -10.6175
  15   2.0000      -0.376142       -10.2353
  16   2.0000      -0.365850        -9.9553
  17   2.0000      -0.328187        -8.9304
  18   2.0000      -0.300518        -8.1775
  19   2.0000      -0.299139        -8.1400
  20   2.0000      -0.294532        -8.0146
  21   2.0000      -0.289314        -7.8726
  22   2.0000      -0.260770        -7.0959
  23   2.0000      -0.205389        -5.5889
  24   0.0000       0.021941         0.5970
  25   0.0000       0.039023         1.0619
  26   0.0000       0.056726         1.5436
  27   0.0000       0.081909         2.2288
  28   0.0000       0.097851         2.6626

MULLIKEN ATOMIC CHARGES
-----------------------
   0 C :   -0.177695
   1 C :   -0.175146
   2 C :   -0.125679
   3 C :    0.018055
   4 C :   -0.134997
   5 O :   -0.427583
   6 H :    0.092258
   7 H :    0.077452
   8 H :    0.086498
   9 H :    0.091247
  10 H :    0.091894
  11 H :    0.065729
  12 H :    0.066872
  13 H :    0.080548
  14 H :    0.084571
  15 H :    0.285976
Sum of atomic charges:   -0.0000000

LOEWDIN ATOMIC CHARGES
----------------------
   0 C :   -0.231346
   1 C :   -0.230741
   2 C :   -0.241450
   3 C :   -0.051952
   4 C :   -0.246980
   5 O :   -0.326036
   6 H :    0.117903
   7 H :    0.111649
   8 H :    0.116808
   9 H :    0.117185
  10 H :    0.122079
  11 H :    0.116024
  12 H :    0.112259
  13 H :    0.121797
  14 H :    0.118928
  15 H :    0.273874

  Mayer bond orders larger than 0.100000
B(  0-C ,  1-C ) :   1.1075 B(  0-C ,  4-C ) :   1.1335 B(  0-C ,  6-H ) :   0.9267
B(  0-C ,  7-H ) :   0.9262 B(  1-C ,  2-C ) :   1.1313 B(  1-C ,  8-H ) :   0.9227
B(  1-C ,  9-H ) :   0.9260 B(  2-C ,  3-C ) :   1.0946 B(  2-C , 10-H ) :   0.9178
B(  2-C , 11-H ) :   0.9077 B(  3-C ,  4-C ) :   1.0945 B(  3-C ,  5-O ) :   1.0614
B(  3-C , 12-H ) :   0.9022 B(  4-C , 13-H ) :   0.9079 B(  4-C , 14-H ) :   0.9184
B(  5-O , 15-H ) :   0.8556

Dispersion correction           -0.012326393
FINAL SINGLE POINT ENERGY      -271.120518738284

DIPOLE MOMENT
-------------

Method             : SCF
Type of density    : Electron Density
Multiplicity       :   1
Irrep              :   0
Energy             :  -271.1831184548217948 Eh
Relativity type    :
Basis              : AO
                                X                 Y                 Z
Electronic contribution:      3.466079420      -0.075476881      -0.116388070
Nuclear contribution   :     -4.040018259       0.108348048      -0.133288971
                        -----------------------------------------
Total Dipole Moment    :     -0.573938839       0.032871167      -0.249677041
                        -----------------------------------------
Magnitude (a.u.)       :      0.626757473
Magnitude (Debye)      :      1.593090891

Rotational constants in cm-1:             0.199024             0.106227             0.081456
Rotational constants in MHz :          5966.585048          3184.599375          2441.985023

                             ****ORCA TERMINATED NORMALLY****
TOTAL RUN TIME: 0 days 0 hours 0 minutes 6 seconds 789 msec
