                         Program Version 6.0.0  -   RELEASE  -
|  1> ! wb97x-v def2-tzvp def2/J RIJCOSX DEFGRID2 scfconv7 GCP(DFT/TZ) printgap
|  2> %output
|  3>     printlevel normal
|  4> end
|  5> * xyz 0 1
|  6> C 3.2944986554609472 1.0927442420966482 0.016486949391738875
|  7> N 2.2797615499010373 0.04413275708676821 0.011247883576880963
|  8> C 2.4966878214167494 -1.2867355339879192 0.006057584742951399
|  9> N 1.3726066138029562 -2.0124091758973766 -0.0033933161590685235
| 10> C 0.38967340177971904 -1.0774217756342424 -0.004156322859979045
| 11> C 0.904987779354948 0.206522962748974 0.003449631348542986
| 12> C 0.09425470556995529 1.3664293224394883 0.010185298339507733
| 13> O 0.4729705916132057 2.545493656324554 0.028928924119830078
| 14> N -1.2808535330692425 1.0531294124253838 -0.007352661960342928
| 15> C -1.8385025580555392 -0.2314423850570776 -0.007939542236717003
| 16> O -3.058251395589171 -0.4175636113735199 -0.011807577579822134
| 17> N -0.9629697184378003 -1.2994161008067455 -0.006947289003637676
| 18> C -1.529265514606435 -2.6516731070449104 -0.013453673609370527
| 19> C -2.1942169572970345 2.20365924779108 -0.005579079566842385
| 20> H 3.2076913680468535 1.7068847691022686 -0.8825352641088986
| 21> H 3.1796998073026876 1.7233053457009928 0.900612709763794
| 22> H 4.274235849187969 0.6138666293581111 0.036365149926358246
| 23> H 3.4966736563770446 -1.699585100334236 0.008064056850337531
| 24> H -2.1624676778817307 -2.7958783792450865 0.8648836565881481
| 25> H -0.7084197231907113 -3.3657805989240694 0.008541111388243965
| 26> H -2.123772580607387 -2.805474013883988 -0.9171194033256205
| 27> H -3.2156373295852596 1.8416053892525042 -0.0879591516317476
| 28> H -1.9651810188956853 2.8547825558441753 -0.8519292914624349
| 29> H -2.0789887931236386 2.7709946931224234 0.9215662000821103
| 30> *
| 31>
| 32>                          ****END OF INPUT****

CARTESIAN COORDINATES (ANGSTROEM)
---------------------------------
  C      3.294499    1.092744    0.016487
  N      2.279762    0.044133    0.011248
  C      2.496688   -1.286736    0.006058
  N      1.372607   -2.012409   -0.003393
  C      0.389673   -1.077422   -0.004156
  C      0.904988    0.206523    0.003450
  C      0.094255    1.366429    0.010185
  O      0.472971    2.545494    0.028929
  N     -1.280854    1.053129   -0.007353
  C     -1.838503   -0.231442   -0.007940
  O     -3.058251   -0.417564   -0.011808
  N     -0.962970   -1.299416   -0.006947
  C     -1.529266   -2.651673   -0.013454
  C     -2.194217    2.203659   -0.005579
  H      3.207691    1.706885   -0.882535
  H      3.179700    1.723305    0.900613
  H      4.274236    0.613867    0.036365
  H      3.496674   -1.699585    0.008064
  H     -2.162468   -2.795878    0.864884
  H     -0.708420   -3.365781    0.008541
  H     -2.123773   -2.805474   -0.917119
  H     -3.215637    1.841605   -0.087959
  H     -1.965181    2.854783   -0.851929
  H     -2.078989    2.770995    0.921566

 Total Charge           Charge          ....    0
 Multiplicity           Mult            ....    1
 Number of Electrons    NEL             ....  102
 Basis Dimension        Dim             ....  494

ORBITAL ENERGIES
----------------

  NO   OCC          E(Eh)            E(eV)
   0   2.0000     -21.648363      -589.0819
   1   2.0000     -21.642457      -588.9212
   2   2.0000     -16.618381      -452.2091
   3   2.0000     -16.592131      -451.4948
   4   2.0000     -16.586167      -451.3325
   5   2.0000     -16.536958      -449.9935
   6   2.0000     -12.193920      -331.8134
   7   2.0000     -12.172437      -331.2289
   8   2.0000     -12.137164      -330.2690
   9   2.0000     -12.135648      -330.2278
  10   2.0000     -12.110697      -329.5488
  11   2.0000     -12.090059      -328.9872
  12   2.0000     -12.085694      -328.8685
  13   2.0000     -12.074788      -328.5717
  14   2.0000      -1.709982       -46.5310
  15   2.0000      -1.699268       -46.2394
  16   2.0000      -1.638411       -44.5834
  17   2.0000      -1.579851       -42.9899
  18   2.0000      -1.537147       -41.8279
  19   2.0000      -1.501334       -40.8534
  20   2.0000      -1.350042       -36.7365
  21   2.0000      -1.280934       -34.8560
  22   2.0000      -1.266145       -34.4536
  23   2.0000      -1.249600       -34.0033
  24   2.0000      -1.212538       -32.9948
  25   2.0000      -1.181765       -32.1575
  26   2.0000      -1.132093       -30.8058
  27   2.0000      -1.105675       -30.0869
  28   2.0000      -1.080080       -29.3905
  29   2.0000      -1.043394       -28.3922
  30   2.0000      -1.033801       -28.1311
  31   2.0000      -1.008858       -27.4524
  32   2.0000      -0.979082       -26.6422
  33   2.0000      -0.974033       -26.5048
  34   2.0000      -0.953156       -25.9367
  35   2.0000      -0.948346       -25.8058
  36   2.0000      -0.945468       -25.7275
  37   2.0000      -0.920343       -25.0438
  38   2.0000      -0.891322       -24.2541
  39   2.0000      -0.881373       -23.9834
  40   2.0000      -0.872683       -23.7469
  41   2.0000      -0.867629       -23.6094
  42   2.0000      -0.859507       -23.3884
  43   2.0000      -0.858908       -23.3721
  44   2.0000      -0.846340       -23.0301
  45   2.0000      -0.835433       -22.7333
  46   2.0000      -0.823560       -22.4102
  47   2.0000      -0.804554       -21.8930
  48   2.0000      -0.779956       -21.2237
  49   2.0000      -0.756206       -20.5774
  50   2.0000      -0.668862       -18.2007
  51   0.0000      -0.347347        -9.4518
  52   0.0000      -0.296092        -8.0571
  53   0.0000      -0.264757        -7.2044
  54   0.0000      -0.180484        -4.9112
  55   0.0000      -0.158063        -4.3011

MULLIKEN ATOMIC CHARGES
-----------------------
   0 C :   -0.268885
   1 N :    0.004101
   2 C :    0.018203
   3 N :   -0.304283
   4 C :    0.166782
   5 C :   -0.107068
   6 C :    0.222233
   7 O :   -0.390294
   8 N :   -0.053445
   9 C :    0.265626
  10 O :   -0.407887
  11 N :   -0.052798
  12 C :   -0.271833
  13 C :   -0.278162
  14 H :    0.151410
  15 H :    0.153471
  16 H :    0.127238
  17 H :    0.157658
  18 H :    0.137189
  19 H :    0.160243
  20 H :    0.135465
  21 H :    0.171252
  22 H :    0.133869
  23 H :    0.129914
Sum of atomic charges:   -0.0000000

LOEWDIN ATOMIC CHARGES
----------------------
   0 C :   -0.238057
   1 N :    0.261605
   2 C :   -0.232304
   3 N :    0.096628
   4 C :   -0.243978
   5 C :   -0.176305
   6 C :   -0.367393
   7 O :    0.048200
   8 N :    0.231714
   9 C :   -0.423644
  10 O :    0.039613
  11 N :    0.236796
  12 C :   -0.241950
  13 C :   -0.250485
  14 H :    0.127649
  15 H :    0.128178
  16 H :    0.122430
  17 H :    0.136016
  18 H :    0.123069
  19 H :    0.127666
  20 H :    0.122561
  21 H :    0.129554
  22 H :    0.121830
  23 H :    0.120610

  Mayer bond orders larger than 0.100000
B(  0-C ,  1-N ) :   0.9080 B(  0-C , 14-H ) :   0.9693 B(  0-C , 15-H ) :   0.9693
B(  0-C , 16-H ) :   0.9647 B(  1-N ,  2-C ) :   1.3467 B(  1-N ,  5-C ) :   1.1579
B(  2-C ,  3-N ) :   1.5788 B(  2-C , 17-H ) :   0.9565 B(  3-N ,  4-C ) :   1.4366
B(  4-C ,  5-C ) :   1.4290 B(  4-C , 11-N ) :   1.1713 B(  5-C ,  6-C ) :   1.0467
B(  6-C ,  7-O ) :   2.0713 B(  6-C ,  8-N ) :   1.1445 B(  8-N ,  9-C ) :   1.1579
B(  8-N , 13-C ) :   0.9041 B(  9-C , 10-O ) :   2.0076 B(  9-C , 11-N ) :   1.1521
B( 11-N , 12-C ) :   0.9033 B( 12-C , 18-H ) :   0.9715 B( 12-C , 19-H ) :   0.9626
B( 12-C , 20-H ) :   0.9721 B( 13-C , 21-H ) :   0.9597 B( 13-C , 22-H ) :   0.9724
B( 13-C , 23-H ) :   0.9750

FINAL SINGLE POINT ENERGY      -680.427890828901

DIPOLE MOMENT
-------------

Method             : SCF
Type of density    : Electron Density
Multiplicity       :   1
Irrep              :   0
Energy             :  -680.4436629888009520 Eh
Relativity type    :
Basis              : AO
                                X                 Y                 Z
Electronic contribution:     -0.146785540      -1.153647010       0.004292045
Nuclear contribution   :      1.769165206       0.843946653      -0.011214606
                        -----------------------------------------
Total Dipole Moment    :      1.622379665      -0.309700356      -0.006922561
                        -----------------------------------------
Magnitude (a.u.)       :      1.651689442
Magnitude (Debye)      :      4.198260919

Rotational constants in cm-1:             0.035307             0.023526             0.014233
Rotational constants in MHz :          1058.463499           705.291842           426.693721

                             ****ORCA TERMINATED NORMALLY****
TOTAL RUN TIME: 0 days 0 hours 8 minutes 35 seconds 318 msec
