                         Program Version 6.0.0  -   RELEASE  -
|  1> ! wb97x-v def2-tzvp def2/J RIJCOSX DEFGRID2 scfconv7 GCP(DFT/TZ) printgap
|  2> %output
|  3>     printlevel normal
|  4> end
|  5> %cpcm
|  6>     smd true
|  7>     smdsolvent "water"
|  8> end
|  9> * xyz 0 1
| 10> C 3.2944986554609472 1.0927442420966482 0.016486949391738875
| 11> N 2.2797615499010373 0.04413275708676821 0.011247883576880963
| 12> C 2.4966878214167494 -1.2867355339879192 0.006057584742951399
| 13> N 1.3726066138029562 -2.0124091758973766 -0.0033933161590685235
| 14> C 0.38967340177971904 -1.0774217756342424 -0.004156322859979045
| 15> C 0.904987779354948 0.206522962748974 0.003449631348542986
| 16> C 0.09425470556995529 1.3664293224394883 0.010185298339507733
| 17> O 0.4729705916132057 2.545493656324554 0.028928924119830078
| 18> N -1.2808535330692425 1.0531294124253838 -0.007352661960342928
| 19> C -1.8385025580555392 -0.2314423850570776 -0.007939542236717003
| 20> O -3.058251395589171 -0.4175636113735199 -0.011807577579822134
| 21> N -0.9629697184378003 -1.2994161008067455 -0.006947289003637676
| 22> C -1.529265514606435 -2.6516731070449104 -0.013453673609370527
| 23> C -2.1942169572970345 2.20365924779108 -0.005579079566842385
| 24> H 3.2076913680468535 1.7068847691022686 -0.8825352641088986
| 25> H 3.1796998073026876 1.7233053457009928 0.900612709763794
| 26> H 4.274235849187969 0.6138666293581111 0.036365149926358246
| 27> H 3.4966736563770446 -1.699585100334236 0.008064056850337531
| 28> H -2.1624676778817307 -2.7958783792450865 0.8648836565881481
| 29> H -0.7084197231907113 -3.3657805989240694 0.008541111388243965
| 30> H -2.123772580607387 -2.805474013883988 -0.9171194033256205
| 31> H -3.2156373295852596 1.8416053892525042 -0.0879591516317476
| 32> H -1.9651810188956853 2.8547825558441753 -0.8519292914624349
| 33> H -2.0789887931236386 2.7709946931224234 0.9215662000821103
| 34> *
| 35>
| 36>                          ****END OF INPUT****

CARTESIAN COORDINATES (ANGSTROEM)
---------------------------------
  C      3.294499    1.092744    0.016487
  N      2.279762    0.044133    0.011248
  C      2.496688   -1.286736    0.006058
  N      1.372607   -2.012409   -0.003393
  C      0.389673   -1.077422   -0.004156
  C      0.904988    0.206523    0.003450
  C      0.094255    1.366429    0.010185
  O      0.472971    2.545494    0.028929
  N     -1.280854    1.053129   -0.007353
  C     -1.838503   -0.231442   -0.007940
  O     -3.058251   -0.417564   -0.011808
  N     -0.962970   -1.299416   -0.006947
  C     -1.529266   -2.651673   -0.013454
  C     -2.194217    2.203659   -0.005579
  H      3.207691    1.706885   -0.882535
  H      3.179700    1.723305    0.900613
  H      4.274236    0.613867    0.036365
  H      3.496674   -1.699585    0.008064
  H     -2.162468   -2.795878    0.864884
  H     -0.708420   -3.365781    0.008541
  H     -2.123773   -2.805474   -0.917119
  H     -3.215637    1.841605   -0.087959
  H     -1.965181    2.854783   -0.851929
  H     -2.078989    2.770995    0.921566

 Total Charge           Charge          ....    0
 Multiplicity           Mult            ....    1
 Number of Electrons    NEL             ....  102
 Basis Dimension        Dim             ....  494

ORBITAL ENERGIES
----------------

  NO   OCC          E(Eh)            E(eV)
   0   2.0000     -21.659424      -589.3829
   1   2.0000     -21.657356      -589.3266
   2   2.0000     -16.605597      -451.8613
   3   2.0000     -16.594527      -451.5600
   4   2.0000     -16.592135      -451.4949
   5   2.0000     -16.532095      -449.8612
   6   2.0000     -12.204456      -332.1001
   7   2.0000     -12.180456      -331.4470
   8   2.0000     -12.133259      -330.1628
   9   2.0000     -12.125571      -329.9536
  10   2.0000     -12.085899      -328.8740
  11   2.0000     -12.083585      -328.8111
  12   2.0000     -12.078598      -328.6754
  13   2.0000     -12.073885      -328.5471
  14   2.0000      -1.725186       -46.9447
  15   2.0000      -1.712753       -46.6064
  16   2.0000      -1.629808       -44.3493
  17   2.0000      -1.580911       -43.0188
  18   2.0000      -1.540046       -41.9068
  19   2.0000      -1.494492       -40.6672
  20   2.0000      -1.345588       -36.6153
  21   2.0000      -1.271738       -34.6057
  22   2.0000      -1.259836       -34.2819
  23   2.0000      -1.249014       -33.9874
  24   2.0000      -1.209212       -32.9043
  25   2.0000      -1.182103       -32.1667
  26   2.0000      -1.129165       -30.7261
  27   2.0000      -1.100529       -29.9469
  28   2.0000      -1.086454       -29.5639
  29   2.0000      -1.050597       -28.5882
  30   2.0000      -1.045694       -28.4548
  31   2.0000      -1.000852       -27.2346
  32   2.0000      -0.976892       -26.5826
  33   2.0000      -0.974195       -26.5092
  34   2.0000      -0.951895       -25.9024
  35   2.0000      -0.939654       -25.5693
  36   2.0000      -0.930296       -25.3146
  37   2.0000      -0.928910       -25.2769
  38   2.0000      -0.895511       -24.3681
  39   2.0000      -0.894367       -24.3370
  40   2.0000      -0.876917       -23.8621
  41   2.0000      -0.876698       -23.8562
  42   2.0000      -0.845799       -23.0154
  43   2.0000      -0.844881       -22.9904
  44   2.0000      -0.839876       -22.8542
  45   2.0000      -0.835772       -22.7425
  46   2.0000      -0.819345       -22.2955
  47   2.0000      -0.798290       -21.7226
  48   2.0000      -0.778778       -21.1916
  49   2.0000      -0.750840       -20.4314
  50   2.0000      -0.665361       -18.1054
  51   0.0000      -0.345329        -9.3969
  52   0.0000      -0.301397        -8.2014
  53   0.0000      -0.255682        -6.9575
  54   0.0000      -0.177446        -4.8285
  55   0.0000      -0.156297        -4.2531

MULLIKEN ATOMIC CHARGES
-----------------------
   0 C :   -0.320797
   1 N :    0.024836
   2 C :    0.029073
   3 N :   -0.362766
   4 C :    0.167488
   5 C :   -0.094507
   6 C :    0.287650
   7 O :   -0.513693
   8 N :   -0.028216
   9 C :    0.323123
  10 O :   -0.524597
  11 N :   -0.026203
  12 C :   -0.310376
  13 C :   -0.316536
  14 H :    0.165511
  15 H :    0.165213
  16 H :    0.169849
  17 H :    0.208189
  18 H :    0.158245
  19 H :    0.163591
  20 H :    0.158411
  21 H :    0.163854
  22 H :    0.155613
  23 H :    0.157045
Sum of atomic charges:   -0.0000000

LOEWDIN ATOMIC CHARGES
----------------------
   0 C :   -0.233688
   1 N :    0.270023
   2 C :   -0.205171
   3 N :    0.066208
   4 C :   -0.238302
   5 C :   -0.170295
   6 C :   -0.352142
   7 O :   -0.017351
   8 N :    0.241135
   9 C :   -0.408808
  10 O :   -0.024876
  11 N :    0.247056
  12 C :   -0.240163
  13 C :   -0.250938
  14 H :    0.129959
  15 H :    0.129845
  16 H :    0.136702
  17 H :    0.153594
  18 H :    0.127628
  19 H :    0.130274
  20 H :    0.127520
  21 H :    0.128870
  22 H :    0.126606
  23 H :    0.126315

  Mayer bond orders larger than 0.100000
B(  0-C ,  1-N ) :   0.8900 B(  0-C , 14-H ) :   0.9653 B(  0-C , 15-H ) :   0.9654
B(  0-C , 16-H ) :   0.9587 B(  1-N ,  2-C ) :   1.3673 B(  1-N ,  5-C ) :   1.1545
B(  2-C ,  3-N ) :   1.5390 B(  2-C , 17-H ) :   0.9432 B(  3-N ,  4-C ) :   1.4686
B(  4-C ,  5-C ) :   1.4389 B(  4-C , 11-N ) :   1.1694 B(  5-C ,  6-C ) :   1.0820
B(  6-C ,  7-O ) :   1.9409 B(  6-C ,  8-N ) :   1.1562 B(  8-N ,  9-C ) :   1.1767
B(  8-N , 13-C ) :   0.8884 B(  9-C , 10-O ) :   1.8934 B(  9-C , 11-N ) :   1.1865
B( 11-N , 12-C ) :   0.8849 B( 12-C , 18-H ) :   0.9662 B( 12-C , 19-H ) :   0.9608
B( 12-C , 20-H ) :   0.9667 B( 13-C , 21-H ) :   0.9603 B( 13-C , 22-H ) :   0.9666
B( 13-C , 23-H ) :   0.9688

FINAL SINGLE POINT ENERGY      -680.448562710264

DIPOLE MOMENT
-------------

Method             : SCF
Type of density    : Electron Density
Multiplicity       :   1
Irrep              :   0
Energy             :  -680.4643348701636114 Eh
Relativity type    :
Basis              : AO
                                X                 Y                 Z
Electronic contribution:      0.546312749      -1.437276249       0.000749582
Nuclear contribution   :      1.769165206       0.843946653      -0.011214606
                        -----------------------------------------
Total Dipole Moment    :      2.315477955      -0.593329596      -0.010465025
                        -----------------------------------------
Magnitude (a.u.)       :      2.390311211
Magnitude (Debye)      :      6.075688256

Rotational constants in cm-1:             0.035307             0.023526             0.014233
Rotational constants in MHz :          1058.463499           705.291842           426.693721

                             ****ORCA TERMINATED NORMALLY****
TOTAL RUN TIME: 0 days 0 hours 8 minutes 7 seconds 525 msec
