                         Program Version 6.0.0  -   RELEASE  -
|  1> ! wb97x-v def2-tzvp def2/J RIJCOSX DEFGRID2 scfconv7 GCP(DFT/TZ) printgap
|  2> %output
|  3>     printlevel normal
|  4> end
|  5> * xyz 0 1
|  6> C 1.768296845470115 0.09733285473104643 -1.5213585583277627
|  7> C 3.146701697601615 0.2037178976975842 -1.6221690705665168
|  8> C 3.9193727435289234 0.36485123125041247 -0.47562521023219984
|  9> C 3.302211709276197 0.42596154995116703 0.7744057074180394
| 10> C 1.919813634747128 0.32591029107029945 0.874963892428167
| 11> C 1.144269212645177 0.1555956533482988 -0.2721425062602897
| 12> C -0.3296607796253714 0.1051360142825436 -0.14198052637805242
| 13> C -0.9750507558006027 1.1619904532189858 0.49927931613292686
| 14> C -2.35260108183636 1.179519842019998 0.6405048880608976
| 15> C -3.133384730926196 0.13451219190680688 0.1415010554631015
| 16> C -2.4990113353155246 -0.9421706653057822 -0.49202100980751323
| 17> C -1.1058275454723054 -0.9550785057166886 -0.6269428731505884
| 18> Cl -0.3361072268152882 -2.3396586807121316 -1.3479579740636314
| 19> Cl -3.4472438194369537 -2.261671007091609 -1.0904823948078226
| 20> Cl -4.854877226454241 0.1640412314458357 0.30804537807035304
| 21> Cl -3.0945148821420005 2.535860913175226 1.4395650066328984
| 22> Cl 4.239229238951513 0.6256383146625626 2.233120468871067
| 23> Cl 5.651416595026072 0.49570016585582977 -0.631393007571026
| 24> H 1.1777644457500138 -0.008489102455951626 -2.424163114398119
| 25> H 3.628930062223706 0.1689660081722332 -2.5924944971438513
| 26> H 1.448725793843826 0.3714957579223914 1.8506127331213973
| 27> H -0.38665616238398987 1.9902933578074482 0.8767461328286663
| 28> *
| 29>
| 30>                          ****END OF INPUT****

CARTESIAN COORDINATES (ANGSTROEM)
---------------------------------
  C      1.768297    0.097333   -1.521359
  C      3.146702    0.203718   -1.622169
  C      3.919373    0.364851   -0.475625
  C      3.302212    0.425962    0.774406
  C      1.919814    0.325910    0.874964
  C      1.144269    0.155596   -0.272143
  C     -0.329661    0.105136   -0.141981
  C     -0.975051    1.161990    0.499279
  C     -2.352601    1.179520    0.640505
  C     -3.133385    0.134512    0.141501
  C     -2.499011   -0.942171   -0.492021
  C     -1.105828   -0.955079   -0.626943
  Cl    -0.336107   -2.339659   -1.347958
  Cl    -3.447244   -2.261671   -1.090482
  Cl    -4.854877    0.164041    0.308045
  Cl    -3.094515    2.535861    1.439565
  Cl     4.239229    0.625638    2.233120
  Cl     5.651417    0.495700   -0.631393
  H      1.177764   -0.008489   -2.424163
  H      3.628930    0.168966   -2.592494
  H      1.448726    0.371496    1.850613
  H     -0.386656    1.990293    0.876746

 Total Charge           Charge          ....    0
 Multiplicity           Mult            ....    1
 Number of Electrons    NEL             ....  178
 Basis Dimension        Dim             ....  618

ORBITAL ENERGIES
----------------

  NO   OCC          E(Eh)            E(eV)
   0   2.0000    -107.169711     -2916.2361
   1   2.0000    -107.169600     -2916.2331
   2   2.0000    -107.168520     -2916.2037
   3   2.0000    -107.168059     -2916.1911
   4   2.0000    -107.160363     -2915.9817
   5   2.0000    -107.160024     -2915.9725
   6   2.0000     -12.159212      -330.8690
   7   2.0000     -12.156666      -330.7997
   8   2.0000     -12.153909      -330.7247
   9   2.0000     -12.151739      -330.6656
  10   2.0000     -12.142927      -330.4258
  11   2.0000     -12.140709      -330.3655
  12   2.0000     -12.111901      -329.5816
  13   2.0000     -12.099429      -329.2422
  14   2.0000     -12.097269      -329.1834
  15   2.0000     -12.089924      -328.9836
  16   2.0000     -12.087707      -328.9232
  17   2.0000     -12.084612      -328.8390
  18   2.0000     -11.322718      -308.1068
  19   2.0000     -11.322634      -308.1045
  20   2.0000     -11.321671      -308.0783
  21   2.0000     -11.321102      -308.0628
  22   2.0000     -11.313371      -307.8525
  23   2.0000     -11.313034      -307.8433
  24   2.0000      -9.114720      -248.0241
  25   2.0000      -9.114295      -248.0126
  26   2.0000      -9.113193      -247.9826
  27   2.0000      -9.112620      -247.9670
  28   2.0000      -9.112020      -247.9507
  29   2.0000      -9.111540      -247.9376
  30   2.0000      -9.111410      -247.9341
  31   2.0000      -9.111067      -247.9247
  32   2.0000      -9.110561      -247.9110
  33   2.0000      -9.110181      -247.9006
  34   2.0000      -9.109858      -247.8918
  35   2.0000      -9.109760      -247.8892
  36   2.0000      -9.105191      -247.7648
  37   2.0000      -9.104456      -247.7449
  38   2.0000      -9.102466      -247.6907
  39   2.0000      -9.102208      -247.6837
  40   2.0000      -9.101863      -247.6743
  41   2.0000      -9.101541      -247.6655
  42   2.0000      -1.497314       -40.7440
  43   2.0000      -1.470107       -40.0036
  44   2.0000      -1.461396       -39.7666
  45   2.0000      -1.446307       -39.3560
  46   2.0000      -1.429077       -38.8871
  47   2.0000      -1.427083       -38.8329
  48   2.0000      -1.409917       -38.3658
  49   2.0000      -1.386103       -37.7178
  50   2.0000      -1.329505       -36.1777
  51   2.0000      -1.304146       -35.4876
  52   2.0000      -1.298124       -35.3238
  53   2.0000      -1.280802       -34.8524
  54   2.0000      -1.179091       -32.0847
  55   2.0000      -1.156597       -31.4726
  56   2.0000      -1.146431       -31.1960
  57   2.0000      -1.122112       -30.5342
  58   2.0000      -1.042891       -28.3785
  59   2.0000      -1.027096       -27.9487
  60   2.0000      -1.008145       -27.4330
  61   2.0000      -1.001128       -27.2421
  62   2.0000      -0.985256       -26.8102
  63   2.0000      -0.967316       -26.3220
  64   2.0000      -0.955546       -26.0017
  65   2.0000      -0.946921       -25.7670
  66   2.0000      -0.926225       -25.2039
  67   2.0000      -0.920477       -25.0475
  68   2.0000      -0.899381       -24.4734
  69   2.0000      -0.888779       -24.1849
  70   2.0000      -0.887627       -24.1536
  71   2.0000      -0.862557       -23.4714
  72   2.0000      -0.860583       -23.4176
  73   2.0000      -0.848387       -23.0858
  74   2.0000      -0.833910       -22.6918
  75   2.0000      -0.826031       -22.4774
  76   2.0000      -0.823754       -22.4155
  77   2.0000      -0.822816       -22.3900
  78   2.0000      -0.820514       -22.3273
  79   2.0000      -0.815725       -22.1970
  80   2.0000      -0.810215       -22.0471
  81   2.0000      -0.808182       -21.9918
  82   2.0000      -0.803382       -21.8611
  83   2.0000      -0.793252       -21.5855
  84   2.0000      -0.778732       -21.1904
  85   2.0000      -0.703973       -19.1561
  86   2.0000      -0.689430       -18.7603
  87   2.0000      -0.677793       -18.4437
  88   2.0000      -0.668727       -18.1970
  89   0.0000      -0.344582        -9.3766
  90   0.0000      -0.328712        -8.9447
  91   0.0000      -0.311640        -8.4802
  92   0.0000      -0.304526        -8.2866
  93   0.0000      -0.289694        -7.8830

MULLIKEN ATOMIC CHARGES
-----------------------
   0 C :   -0.213301
   1 C :   -0.162035
   2 C :    0.066101
   3 C :    0.122384
   4 C :   -0.324295
   5 C :    0.212986
   6 C :    0.145856
   7 C :   -0.306150
   8 C :    0.109418
   9 C :    0.005823
  10 C :    0.020939
  11 C :   -0.053590
  12 Cl:   -0.030305
  13 Cl:   -0.020943
  14 Cl:   -0.020179
  15 Cl:   -0.046613
  16 Cl:   -0.057527
  17 Cl:   -0.058163
  18 H :    0.148794
  19 H :    0.141562
  20 H :    0.156123
  21 H :    0.163112
Sum of atomic charges:   -0.0000000

LOEWDIN ATOMIC CHARGES
----------------------
   0 C :   -0.094722
   1 C :   -0.128684
   2 C :   -0.422080
   3 C :   -0.421380
   4 C :   -0.095770
   5 C :   -0.111469
   6 C :   -0.104490
   7 C :   -0.094982
   8 C :   -0.426537
   9 C :   -0.443578
  10 C :   -0.437868
  11 C :   -0.388031
  12 Cl:    0.441832
  13 Cl:    0.437425
  14 Cl:    0.438615
  15 Cl:    0.417751
  16 Cl:    0.404085
  17 Cl:    0.404941
  18 H :    0.153162
  19 H :    0.152382
  20 H :    0.157769
  21 H :    0.161629

  Mayer bond orders larger than 0.100000
B(  0-C ,  1-C ) :   1.4505 B(  0-C ,  5-C ) :   1.3559 B(  0-C , 18-H ) :   0.9609
B(  1-C ,  2-C ) :   1.3754 B(  1-C , 19-H ) :   0.9600 B(  2-C ,  3-C ) :   1.3126
B(  2-C , 17-Cl) :   1.0904 B(  3-C ,  4-C ) :   1.4014 B(  3-C , 16-Cl) :   1.0832
B(  4-C ,  5-C ) :   1.3900 B(  4-C , 20-H ) :   0.9580 B(  5-C ,  6-C ) :   0.8231
B(  6-C ,  7-C ) :   1.3876 B(  6-C , 11-C ) :   1.3101 B(  7-C ,  8-C ) :   1.4047
B(  7-C , 21-H ) :   0.9564 B(  8-C ,  9-C ) :   1.3211 B(  8-C , 15-Cl) :   1.0820
B(  9-C , 10-C ) :   1.3170 B(  9-C , 14-Cl) :   1.2142 B( 10-C , 11-C ) :   1.3420
B( 10-C , 13-Cl) :   1.2094 B( 11-C , 12-Cl) :   1.2279

FINAL SINGLE POINT ENERGY     -3220.587683971974

DIPOLE MOMENT
-------------

Method             : SCF
Type of density    : Electron Density
Multiplicity       :   1
Irrep              :   0
Energy             : -3220.5986037512743678 Eh
Relativity type    :
Basis              : AO
                                X                 Y                 Z
Electronic contribution:     -8.007585445      -3.236485921       2.951771261
Nuclear contribution   :      7.958419528       3.437182963      -3.331018710
                        -----------------------------------------
Total Dipole Moment    :     -0.049165917       0.200697042      -0.379247449
                        -----------------------------------------
Magnitude (a.u.)       :      0.431885654
Magnitude (Debye)      :      1.097766091

Rotational constants in cm-1:             0.014520             0.003833             0.003236
Rotational constants in MHz :           435.293787           114.897283            97.022193

                             ****ORCA TERMINATED NORMALLY****
TOTAL RUN TIME: 0 days 0 hours 11 minutes 28 seconds 802 msec
