                         Program Version 6.0.0  -   RELEASE  -
|  1> ! wb97x-v def2-tzvp def2/J RIJCOSX DEFGRID2 scfconv7 GCP(DFT/TZ) printgap
|  2> %output
|  3>     printlevel normal
|  4> end
|  5> %cpcm
|  6>     smd true
|  7>     smdsolvent "water"
|  8> end
|  9> * xyz 0 1
| 10> C 1.768296845470115 0.09733285473104643 -1.5213585583277627
| 11> C 3.146701697601615 0.2037178976975842 -1.6221690705665168
| 12> C 3.9193727435289234 0.36485123125041247 -0.47562521023219984
| 13> C 3.302211709276197 0.42596154995116703 0.7744057074180394
| 14> C 1.919813634747128 0.32591029107029945 0.874963892428167
| 15> C 1.144269212645177 0.1555956533482988 -0.2721425062602897
| 16> C -0.3296607796253714 0.1051360142825436 -0.14198052637805242
| 17> C -0.9750507558006027 1.1619904532189858 0.49927931613292686
| 18> C -2.35260108183636 1.179519842019998 0.6405048880608976
| 19> C -3.133384730926196 0.13451219190680688 0.1415010554631015
| 20> C -2.4990113353155246 -0.9421706653057822 -0.49202100980751323
| 21> C -1.1058275454723054 -0.9550785057166886 -0.6269428731505884
| 22> Cl -0.3361072268152882 -2.3396586807121316 -1.3479579740636314
| 23> Cl -3.4472438194369537 -2.261671007091609 -1.0904823948078226
| 24> Cl -4.854877226454241 0.1640412314458357 0.30804537807035304
| 25> Cl -3.0945148821420005 2.535860913175226 1.4395650066328984
| 26> Cl 4.239229238951513 0.6256383146625626 2.233120468871067
| 27> Cl 5.651416595026072 0.49570016585582977 -0.631393007571026
| 28> H 1.1777644457500138 -0.008489102455951626 -2.424163114398119
| 29> H 3.628930062223706 0.1689660081722332 -2.5924944971438513
| 30> H 1.448725793843826 0.3714957579223914 1.8506127331213973
| 31> H -0.38665616238398987 1.9902933578074482 0.8767461328286663
| 32> *
| 33>
| 34>                          ****END OF INPUT****

CARTESIAN COORDINATES (ANGSTROEM)
---------------------------------
  C      1.768297    0.097333   -1.521359
  C      3.146702    0.203718   -1.622169
  C      3.919373    0.364851   -0.475625
  C      3.302212    0.425962    0.774406
  C      1.919814    0.325910    0.874964
  C      1.144269    0.155596   -0.272143
  C     -0.329661    0.105136   -0.141981
  C     -0.975051    1.161990    0.499279
  C     -2.352601    1.179520    0.640505
  C     -3.133385    0.134512    0.141501
  C     -2.499011   -0.942171   -0.492021
  C     -1.105828   -0.955079   -0.626943
  Cl    -0.336107   -2.339659   -1.347958
  Cl    -3.447244   -2.261671   -1.090482
  Cl    -4.854877    0.164041    0.308045
  Cl    -3.094515    2.535861    1.439565
  Cl     4.239229    0.625638    2.233120
  Cl     5.651417    0.495700   -0.631393
  H      1.177764   -0.008489   -2.424163
  H      3.628930    0.168966   -2.592494
  H      1.448726    0.371496    1.850613
  H     -0.386656    1.990293    0.876746

 Total Charge           Charge          ....    0
 Multiplicity           Mult            ....    1
 Number of Electrons    NEL             ....  178
 Basis Dimension        Dim             ....  618

ORBITAL ENERGIES
----------------

  NO   OCC          E(Eh)            E(eV)
   0   2.0000    -107.166549     -2916.1500
   1   2.0000    -107.166080     -2916.1373
   2   2.0000    -107.162324     -2916.0351
   3   2.0000    -107.162279     -2916.0339
   4   2.0000    -107.156924     -2915.8882
   5   2.0000    -107.156860     -2915.8864
   6   2.0000     -12.150622      -330.6352
   7   2.0000     -12.148252      -330.5707
   8   2.0000     -12.144394      -330.4658
   9   2.0000     -12.141754      -330.3939
  10   2.0000     -12.133271      -330.1631
  11   2.0000     -12.131111      -330.1043
  12   2.0000     -12.099672      -329.2488
  13   2.0000     -12.085855      -328.8728
  14   2.0000     -12.083008      -328.7954
  15   2.0000     -12.075513      -328.5914
  16   2.0000     -12.072919      -328.5208
  17   2.0000     -12.069231      -328.4205
  18   2.0000     -11.319616      -308.0224
  19   2.0000     -11.319181      -308.0106
  20   2.0000     -11.315475      -307.9097
  21   2.0000     -11.315408      -307.9079
  22   2.0000     -11.310051      -307.7621
  23   2.0000     -11.309963      -307.7597
  24   2.0000      -9.111492      -247.9363
  25   2.0000      -9.110735      -247.9157
  26   2.0000      -9.108763      -247.8620
  27   2.0000      -9.108445      -247.8534
  28   2.0000      -9.108008      -247.8415
  29   2.0000      -9.107687      -247.8328
  30   2.0000      -9.107083      -247.8163
  31   2.0000      -9.106978      -247.8135
  32   2.0000      -9.104483      -247.7456
  33   2.0000      -9.104205      -247.7380
  34   2.0000      -9.104152      -247.7366
  35   2.0000      -9.104113      -247.7355
  36   2.0000      -9.101930      -247.6761
  37   2.0000      -9.101286      -247.6586
  38   2.0000      -9.099300      -247.6045
  39   2.0000      -9.098946      -247.5949
  40   2.0000      -9.098826      -247.5916
  41   2.0000      -9.098423      -247.5807
  42   2.0000      -1.489929       -40.5430
  43   2.0000      -1.463171       -39.8149
  44   2.0000      -1.455140       -39.5964
  45   2.0000      -1.440225       -39.1905
  46   2.0000      -1.424760       -38.7697
  47   2.0000      -1.423151       -38.7259
  48   2.0000      -1.399770       -38.0897
  49   2.0000      -1.376780       -37.4641
  50   2.0000      -1.319581       -35.9076
  51   2.0000      -1.291837       -35.1527
  52   2.0000      -1.288127       -35.0517
  53   2.0000      -1.270729       -34.5783
  54   2.0000      -1.168321       -31.7916
  55   2.0000      -1.145784       -31.1784
  56   2.0000      -1.134251       -30.8645
  57   2.0000      -1.111136       -30.2355
  58   2.0000      -1.032274       -28.0896
  59   2.0000      -1.017027       -27.6747
  60   2.0000      -0.996405       -27.1136
  61   2.0000      -0.991912       -26.9913
  62   2.0000      -0.977192       -26.5908
  63   2.0000      -0.959385       -26.1062
  64   2.0000      -0.948360       -25.8062
  65   2.0000      -0.937839       -25.5199
  66   2.0000      -0.917297       -24.9609
  67   2.0000      -0.904733       -24.6190
  68   2.0000      -0.885822       -24.1044
  69   2.0000      -0.881006       -23.9734
  70   2.0000      -0.875243       -23.8166
  71   2.0000      -0.854745       -23.2588
  72   2.0000      -0.847173       -23.0527
  73   2.0000      -0.842476       -22.9249
  74   2.0000      -0.828835       -22.5538
  75   2.0000      -0.822361       -22.3776
  76   2.0000      -0.820288       -22.3212
  77   2.0000      -0.817946       -22.2574
  78   2.0000      -0.817889       -22.2559
  79   2.0000      -0.810243       -22.0478
  80   2.0000      -0.806185       -21.9374
  81   2.0000      -0.804315       -21.8865
  82   2.0000      -0.800414       -21.7804
  83   2.0000      -0.784159       -21.3381
  84   2.0000      -0.770512       -20.9667
  85   2.0000      -0.694325       -18.8935
  86   2.0000      -0.679554       -18.4916
  87   2.0000      -0.665255       -18.1025
  88   2.0000      -0.658097       -17.9077
  89   0.0000      -0.337860        -9.1936
  90   0.0000      -0.317850        -8.6491
  91   0.0000      -0.300823        -8.1858
  92   0.0000      -0.297072        -8.0837
  93   0.0000      -0.281349        -7.6559

MULLIKEN ATOMIC CHARGES
-----------------------
   0 C :   -0.249634
   1 C :   -0.188096
   2 C :    0.076986
   3 C :    0.126598
   4 C :   -0.323071
   5 C :    0.188833
   6 C :    0.168624
   7 C :   -0.301235
   8 C :    0.114034
   9 C :    0.018900
  10 C :    0.026322
  11 C :   -0.036107
  12 Cl:   -0.050217
  13 Cl:   -0.042026
  14 Cl:   -0.041585
  15 Cl:   -0.064212
  16 Cl:   -0.080767
  17 Cl:   -0.081739
  18 H :    0.184456
  19 H :    0.177061
  20 H :    0.185429
  21 H :    0.191446
Sum of atomic charges:   -0.0000000

LOEWDIN ATOMIC CHARGES
----------------------
   0 C :   -0.089380
   1 C :   -0.126809
   2 C :   -0.428360
   3 C :   -0.427445
   4 C :   -0.085760
   5 C :   -0.109383
   6 C :   -0.093976
   7 C :   -0.076720
   8 C :   -0.425015
   9 C :   -0.442784
  10 C :   -0.437185
  11 C :   -0.382476
  12 Cl:    0.431164
  13 Cl:    0.423015
  14 Cl:    0.424187
  15 Cl:    0.405472
  16 Cl:    0.386263
  17 Cl:    0.387081
  18 H :    0.163352
  19 H :    0.162567
  20 H :    0.168734
  21 H :    0.173457

  Mayer bond orders larger than 0.100000
B(  0-C ,  1-C ) :   1.4514 B(  0-C ,  5-C ) :   1.3303 B(  0-C , 18-H ) :   0.9658
B(  1-C ,  2-C ) :   1.3536 B(  1-C , 19-H ) :   0.9614 B(  2-C ,  3-C ) :   1.3034
B(  2-C , 17-Cl) :   1.0686 B(  3-C ,  4-C ) :   1.3812 B(  3-C , 16-Cl) :   1.0678
B(  4-C ,  5-C ) :   1.3996 B(  4-C , 20-H ) :   0.9598 B(  5-C ,  6-C ) :   0.8221
B(  6-C ,  7-C ) :   1.3998 B(  6-C , 11-C ) :   1.3036 B(  7-C ,  8-C ) :   1.3868
B(  7-C , 21-H ) :   0.9549 B(  8-C ,  9-C ) :   1.3192 B(  8-C , 15-Cl) :   1.0742
B(  9-C , 10-C ) :   1.3229 B(  9-C , 14-Cl) :   1.1841 B( 10-C , 11-C ) :   1.3476
B( 10-C , 13-Cl) :   1.1811 B( 11-C , 12-Cl) :   1.1859

FINAL SINGLE POINT ENERGY     -3220.589795026621

DIPOLE MOMENT
-------------

Method             : SCF
Type of density    : Electron Density
Multiplicity       :   1
Irrep              :   0
Energy             : -3220.6007148059211431 Eh
Relativity type    :
Basis              : AO
                                X                 Y                 Z
Electronic contribution:     -8.010406429      -3.036212611       2.823725241
Nuclear contribution   :      7.958419528       3.437182963      -3.331018710
                        -----------------------------------------
Total Dipole Moment    :     -0.051986902       0.400970351      -0.507293470
                        -----------------------------------------
Magnitude (a.u.)       :      0.648711434
Magnitude (Debye)      :      1.648893426

Rotational constants in cm-1:             0.014520             0.003833             0.003236
Rotational constants in MHz :           435.293787           114.897283            97.022193

                             ****ORCA TERMINATED NORMALLY****
TOTAL RUN TIME: 0 days 0 hours 12 minutes 31 seconds 454 msec
