                         Program Version 6.0.0  -   RELEASE  -
|  1> ! pbe def2-sv(p) def2/J RI DEFGRID1 loosescf d4 GCP(DFT/SV(P)) printgap
|  2> %output
|  3>     printlevel normal
|  4> end
|  5> * xyz 0 1
|  6> C 1.8579232896 -0.9988530272 0.6784110032
|  7> C 1.2108909677 0.1635894933 -0.0672293795
|  8> C -0.3447109158 0.1935370944 -0.1116439098
|  9> C -0.8502261353 1.5262676134 0.4563196582
| 10> C -1.0082748806 -0.9583751953 0.6454300204
| 11> O -0.7886491064 0.0510808458 -1.4633439195
| 12> H 1.5770452733 -1.0007243171 1.7276586726
| 13> H 2.9397330716 -0.9008905314 0.6177877215
| 14> H 1.580114381 -1.9526881115 0.2394061031
| 15> H 1.5648276654 0.1380194897 -1.1007439334
| 16> H 1.5670575021 1.0945723564 0.3779310185
| 17> H -1.9317257627 1.586065925 0.3558481311
| 18> H -0.5915562484 1.6040702005 1.5083308608
| 19> H -0.404170331 2.364379551 -0.0760584401
| 20> H -2.0869680433 -0.8594039555 0.5527858025
| 21> H -0.7205280321 -1.9096300049 0.2089384177
| 22> H -0.7388301791 -0.9396367856 1.6954783723
| 23> H -0.5512459657 0.8448785316 -1.9605606288
| 24> *
| 25>
| 26>                          ****END OF INPUT****

CARTESIAN COORDINATES (ANGSTROEM)
---------------------------------
  C      1.857923   -0.998853    0.678411
  C      1.210891    0.163589   -0.067229
  C     -0.344711    0.193537   -0.111644
  C     -0.850226    1.526268    0.456320
  C     -1.008275   -0.958375    0.645430
  O     -0.788649    0.051081   -1.463344
  H      1.577045   -1.000724    1.727659
  H      2.939733   -0.900891    0.617788
  H      1.580114   -1.952688    0.239406
  H      1.564828    0.138019   -1.100744
  H      1.567058    1.094572    0.377931
  H     -1.931726    1.586066    0.355848
  H     -0.591556    1.604070    1.508331
  H     -0.404170    2.364380   -0.076058
  H     -2.086968   -0.859404    0.552786
  H     -0.720528   -1.909630    0.208938
  H     -0.738830   -0.939637    1.695478
  H     -0.551246    0.844879   -1.960561

 Total Charge           Charge          ....    0
 Multiplicity           Mult            ....    1
 Number of Electrons    NEL             ....   50
 Basis Dimension        Dim             ....  108

ORBITAL ENERGIES
----------------

  NO   OCC          E(Eh)            E(eV)
   0   2.0000     -18.732296      -509.7317
   1   2.0000      -9.944600      -270.6063
   2   2.0000      -9.880024      -268.8491
   3   2.0000      -9.873857      -268.6813
   4   2.0000      -9.873599      -268.6743
   5   2.0000      -9.868097      -268.5246
   6   2.0000      -0.911486       -24.8028
   7   2.0000      -0.714178       -19.4338
   8   2.0000      -0.657765       -17.8987
   9   2.0000      -0.616958       -16.7883
  10   2.0000      -0.560974       -15.2649
  11   2.0000      -0.501324       -13.6417
  12   2.0000      -0.437343       -11.9007
  13   2.0000      -0.410190       -11.1618
  14   2.0000      -0.389886       -10.6093
  15   2.0000      -0.386971       -10.5300
  16   2.0000      -0.357162        -9.7189
  17   2.0000      -0.341916        -9.3040
  18   2.0000      -0.330314        -8.9883
  19   2.0000      -0.322554        -8.7771
  20   2.0000      -0.312082        -8.4922
  21   2.0000      -0.298705        -8.1282
  22   2.0000      -0.282892        -7.6979
  23   2.0000      -0.259852        -7.0709
  24   2.0000      -0.206738        -5.6256
  25   0.0000       0.025560         0.6955
  26   0.0000       0.053096         1.4448
  27   0.0000       0.074938         2.0392
  28   0.0000       0.081726         2.2239
  29   0.0000       0.085534         2.3275

MULLIKEN ATOMIC CHARGES
-----------------------
   0 C :   -0.268325
   1 C :   -0.130493
   2 C :   -0.061292
   3 C :   -0.249838
   4 C :   -0.183771
   5 O :   -0.427495
   6 H :    0.097500
   7 H :    0.101804
   8 H :    0.104948
   9 H :    0.070454
  10 H :    0.075434
  11 H :    0.102509
  12 H :    0.097806
  13 H :    0.089772
  14 H :    0.101872
  15 H :    0.098930
  16 H :    0.090738
  17 H :    0.289448
Sum of atomic charges:   -0.0000000

LOEWDIN ATOMIC CHARGES
----------------------
   0 C :   -0.339637
   1 C :   -0.238453
   2 C :   -0.011407
   3 C :   -0.340345
   4 C :   -0.326608
   5 O :   -0.326898
   6 H :    0.115935
   7 H :    0.120167
   8 H :    0.120001
   9 H :    0.118532
  10 H :    0.114652
  11 H :    0.119388
  12 H :    0.121350
  13 H :    0.111645
  14 H :    0.123098
  15 H :    0.122934
  16 H :    0.119515
  17 H :    0.276133

  Mayer bond orders larger than 0.100000
B(  0-C ,  1-C ) :   1.2142 B(  0-C ,  6-H ) :   0.9451 B(  0-C ,  7-H ) :   0.9449
B(  0-C ,  8-H ) :   0.9442 B(  1-C ,  2-C ) :   1.0075 B(  1-C ,  9-H ) :   0.9071
B(  1-C , 10-H ) :   0.9197 B(  2-C ,  3-C ) :   1.0917 B(  2-C ,  4-C ) :   1.1466
B(  2-C ,  5-O ) :   1.0279 B(  3-C , 11-H ) :   0.9435 B(  3-C , 12-H ) :   0.9377
B(  3-C , 13-H ) :   0.9392 B(  4-C , 14-H ) :   0.9389 B(  4-C , 15-H ) :   0.9277
B(  4-C , 16-H ) :   0.9346 B(  5-O , 17-H ) :   0.8541

Dispersion correction           -0.013537277
FINAL SINGLE POINT ENERGY      -272.301082209373

DIPOLE MOMENT
-------------

Method             : SCF
Type of density    : Electron Density
Multiplicity       :   1
Irrep              :   0
Energy             :  -272.3700830413246763 Eh
Relativity type    :
Basis              : AO
                                X                 Y                 Z
Electronic contribution:     -1.768153210       0.384692215      -3.700836735
Nuclear contribution   :      2.055777312       0.065502938       3.868662217
                        -----------------------------------------
Total Dipole Moment    :      0.287624102       0.450195153       0.167825481
                        -----------------------------------------
Magnitude (a.u.)       :      0.559972046
Magnitude (Debye)      :      1.423335826

Rotational constants in cm-1:             0.149280             0.084879             0.082906
Rotational constants in MHz :          4475.304445          2544.601333          2485.466787

                             ****ORCA TERMINATED NORMALLY****
TOTAL RUN TIME: 0 days 0 hours 0 minutes 6 seconds 787 msec
