                         Program Version 6.0.0  -   RELEASE  -
|  1> ! wb97x-v def2-tzvp def2/J RIJCOSX DEFGRID2 scfconv7 GCP(DFT/TZ) printgap
|  2> %output
|  3>     printlevel normal
|  4> end
|  5> * xyz 0 1
|  6> C 1.7242451120237712 1.4864604227518876 0.4319949087414403
|  7> C 0.46194469539444966 0.7876746403965021 0.910944700160741
|  8> H 0.25875654453607344 1.141245765599354 1.9249006687071262
|  9> C 0.460784036409493 -0.7862926070843801 0.9126811263689223
| 10> H 0.2570198841438884 -1.137394490425632 1.927383265262896
| 11> C 1.7220740144746296 -1.4880262778616133 0.43535501841458224
| 12> O 2.784750320312449 -1.2862109076495392 1.4117776712405448
| 13> S 3.8076573498886868 -0.0015940336209302323 1.0593346427396069
| 14> O 4.7371458268815925 -0.0009959730093343634 2.2042275599176113
| 15> O 2.7866164962963396 1.2852668503127238 1.4088942784667216
| 16> C -0.7751429589631924 -1.1242346789151703 0.021235130423355904
| 17> C -0.46412366350283757 -0.6706386721511842 -1.3990584671061432
| 18> C -0.4631892544796029 0.6685031452136857 -1.400482423957117
| 19> C -0.7735292531429742 1.1255315338156262 0.01885449269261062
| 20> C -1.775410979667208 0.001799945947339821 0.4257797100101614
| 21> Cl -3.287119751213893 0.0018777839438613346 -0.5323544275028971
| 22> Cl -2.21617759147956 0.003952713657419716 2.1552393833674977
| 23> Cl -1.3793652267833985 2.783591221332686 0.18033297483750374
| 24> Cl -0.08803687601267841 1.7182378684461286 -2.690351725763341
| 25> Cl -0.09045907334204065 -1.723597978233538 -2.6867335185923182
| 26> Cl -1.3834033901271163 -2.781059298959368 0.186178448517328
| 27> H 1.5679852833822796 2.5673594828213218 0.396766712639208
| 28> H 2.055738901650907 1.1570946271426128 -0.5602897599525135
| 29> H 1.5641768240189917 -2.568763763952688 0.40259427720305285
| 30> H 2.054061754420013 -1.1614613475135718 -0.5576795244557666
| 31> *
| 32>
| 33>                          ****END OF INPUT****

CARTESIAN COORDINATES (ANGSTROEM)
---------------------------------
  C      1.724245    1.486460    0.431995
  C      0.461945    0.787675    0.910945
  H      0.258757    1.141246    1.924901
  C      0.460784   -0.786293    0.912681
  H      0.257020   -1.137394    1.927383
  C      1.722074   -1.488026    0.435355
  O      2.784750   -1.286211    1.411778
  S      3.807657   -0.001594    1.059335
  O      4.737146   -0.000996    2.204228
  O      2.786616    1.285267    1.408894
  C     -0.775143   -1.124235    0.021235
  C     -0.464124   -0.670639   -1.399058
  C     -0.463189    0.668503   -1.400482
  C     -0.773529    1.125532    0.018854
  C     -1.775411    0.001800    0.425780
  Cl    -3.287120    0.001878   -0.532354
  Cl    -2.216178    0.003953    2.155239
  Cl    -1.379365    2.783591    0.180333
  Cl    -0.088037    1.718238   -2.690352
  Cl    -0.090459   -1.723598   -2.686734
  Cl    -1.383403   -2.781059    0.186178
  H      1.567985    2.567359    0.396767
  H      2.055739    1.157095   -0.560290
  H      1.564177   -2.568764    0.402594
  H      2.054062   -1.161461   -0.557680

 Total Charge           Charge          ....    0
 Multiplicity           Mult            ....    1
 Number of Electrons    NEL             ....  202
 Basis Dimension        Dim             ....  667

ORBITAL ENERGIES
----------------

  NO   OCC          E(Eh)            E(eV)
   0   2.0000    -107.192274     -2916.8501
   1   2.0000    -107.192247     -2916.8493
   2   2.0000    -107.178596     -2916.4779
   3   2.0000    -107.174362     -2916.3627
   4   2.0000    -107.174348     -2916.3623
   5   2.0000    -107.172753     -2916.3189
   6   2.0000     -94.318247     -2566.5300
   7   2.0000     -21.732927      -591.3830
   8   2.0000     -21.732910      -591.3825
   9   2.0000     -21.681249      -589.9768
  10   2.0000     -12.227863      -332.7371
  11   2.0000     -12.190050      -331.7081
  12   2.0000     -12.189511      -331.6935
  13   2.0000     -12.165897      -331.0509
  14   2.0000     -12.163353      -330.9817
  15   2.0000     -12.144566      -330.4704
  16   2.0000     -12.144391      -330.4657
  17   2.0000     -12.115885      -329.6900
  18   2.0000     -12.114789      -329.6602
  19   2.0000     -11.344951      -308.7118
  20   2.0000     -11.344933      -308.7113
  21   2.0000     -11.331935      -308.3576
  22   2.0000     -11.327506      -308.2371
  23   2.0000     -11.327471      -308.2362
  24   2.0000     -11.325971      -308.1953
  25   2.0000      -9.806122      -266.8382
  26   2.0000      -9.136998      -248.6304
  27   2.0000      -9.136440      -248.6152
  28   2.0000      -9.134096      -248.5514
  29   2.0000      -9.134012      -248.5491
  30   2.0000      -9.133556      -248.5367
  31   2.0000      -9.133414      -248.5328
  32   2.0000      -9.123646      -248.2670
  33   2.0000      -9.120758      -248.1885
  34   2.0000      -9.120579      -248.1836
  35   2.0000      -9.119390      -248.1512
  36   2.0000      -9.118951      -248.1393
  37   2.0000      -9.117403      -248.0972
  38   2.0000      -9.116382      -248.0694
  39   2.0000      -9.116233      -248.0653
  40   2.0000      -9.116189      -248.0641
  41   2.0000      -9.116125      -248.0624
  42   2.0000      -9.114499      -248.0181
  43   2.0000      -9.114465      -248.0172
  44   2.0000      -7.785263      -211.8478
  45   2.0000      -7.784529      -211.8278
  46   2.0000      -7.780257      -211.7116
  47   2.0000      -1.758634       -47.8549
  48   2.0000      -1.710748       -46.5518
  49   2.0000      -1.692512       -46.0556
  50   2.0000      -1.538376       -41.8613
  51   2.0000      -1.482669       -40.3455
  52   2.0000      -1.468537       -39.9609
  53   2.0000      -1.446677       -39.3661
  54   2.0000      -1.446425       -39.3592
  55   2.0000      -1.416598       -38.5476
  56   2.0000      -1.408885       -38.3377
  57   2.0000      -1.358193       -36.9583
  58   2.0000      -1.314413       -35.7670
  59   2.0000      -1.298734       -35.3404
  60   2.0000      -1.255613       -34.1670
  61   2.0000      -1.246544       -33.9202
  62   2.0000      -1.176123       -32.0039
  63   2.0000      -1.137341       -30.9486
  64   2.0000      -1.108414       -30.1615
  65   2.0000      -1.084679       -29.5156
  66   2.0000      -1.067823       -29.0570
  67   2.0000      -1.054164       -28.6853
  68   2.0000      -1.038834       -28.2681
  69   2.0000      -1.029389       -28.0111
  70   2.0000      -1.020312       -27.7641
  71   2.0000      -0.993377       -27.0312
  72   2.0000      -0.987268       -26.8649
  73   2.0000      -0.981002       -26.6944
  74   2.0000      -0.969168       -26.3724
  75   2.0000      -0.968241       -26.3472
  76   2.0000      -0.955951       -26.0127
  77   2.0000      -0.936586       -25.4858
  78   2.0000      -0.934218       -25.4214
  79   2.0000      -0.933112       -25.3913
  80   2.0000      -0.922422       -25.1004
  81   2.0000      -0.917601       -24.9692
  82   2.0000      -0.898035       -24.4368
  83   2.0000      -0.884449       -24.0671
  84   2.0000      -0.873695       -23.7745
  85   2.0000      -0.865574       -23.5535
  86   2.0000      -0.849624       -23.1195
  87   2.0000      -0.848826       -23.0977
  88   2.0000      -0.842387       -22.9225
  89   2.0000      -0.836390       -22.7593
  90   2.0000      -0.832107       -22.6428
  91   2.0000      -0.830364       -22.5954
  92   2.0000      -0.825767       -22.4703
  93   2.0000      -0.822876       -22.3916
  94   2.0000      -0.820096       -22.3159
  95   2.0000      -0.818058       -22.2605
  96   2.0000      -0.813950       -22.1487
  97   2.0000      -0.809434       -22.0258
  98   2.0000      -0.808837       -22.0096
  99   2.0000      -0.793957       -21.6047
 100   2.0000      -0.725503       -19.7419
 101   0.0000      -0.373060       -10.1515
 102   0.0000      -0.367375        -9.9968
 103   0.0000      -0.359122        -9.7722
 104   0.0000      -0.328560        -8.9406
 105   0.0000      -0.320797        -8.7293

MULLIKEN ATOMIC CHARGES
-----------------------
   0 C :   -0.176785
   1 C :   -0.114647
   2 H :    0.151140
   3 C :   -0.114842
   4 H :    0.151143
   5 C :   -0.176699
   6 O :   -0.268735
   7 S :    0.647833
   8 O :   -0.428412
   9 O :   -0.268737
  10 C :    0.203836
  11 C :   -0.161850
  12 C :   -0.161977
  13 C :    0.203571
  14 C :    0.090057
  15 Cl:   -0.047336
  16 Cl:   -0.048662
  17 Cl:   -0.047722
  18 Cl:    0.007469
  19 Cl:    0.007479
  20 Cl:   -0.047749
  21 H :    0.148703
  22 H :    0.152124
  23 H :    0.148672
  24 H :    0.152124
Sum of atomic charges:    0.0000000

LOEWDIN ATOMIC CHARGES
----------------------
   0 C :   -0.309658
   1 C :   -0.197827
   2 H :    0.165685
   3 C :   -0.197826
   4 H :    0.165683
   5 C :   -0.309674
   6 O :   -0.051588
   7 S :    0.626206
   8 O :   -0.327328
   9 O :   -0.051586
  10 C :   -0.482575
  11 C :   -0.478949
  12 C :   -0.478949
  13 C :   -0.482579
  14 C :   -0.697337
  15 Cl:    0.399690
  16 Cl:    0.409323
  17 Cl:    0.411879
  18 Cl:    0.476816
  19 Cl:    0.476810
  20 Cl:    0.411884
  21 H :    0.139438
  22 H :    0.121514
  23 H :    0.139438
  24 H :    0.121509

  Mayer bond orders larger than 0.100000
B(  0-C ,  1-C ) :   0.9127 B(  0-C ,  9-O ) :   0.9382 B(  0-C , 21-H ) :   0.9623
B(  0-C , 22-H ) :   0.9933 B(  1-C ,  2-H ) :   0.9419 B(  1-C ,  3-C ) :   0.9529
B(  1-C , 13-C ) :   0.9056 B(  3-C ,  4-H ) :   0.9419 B(  3-C ,  5-C ) :   0.9129
B(  3-C , 10-C ) :   0.9056 B(  5-C ,  6-O ) :   0.9383 B(  5-C , 23-H ) :   0.9623
B(  5-C , 24-H ) :   0.9933 B(  6-O ,  7-S ) :   0.9993 B(  7-S ,  8-O ) :   1.9310
B(  7-S ,  9-O ) :   0.9993 B( 10-C , 11-C ) :   0.8505 B( 10-C , 14-C ) :   1.0348
B( 10-C , 20-Cl) :   1.1663 B( 11-C , 12-C ) :   1.6822 B( 11-C , 19-Cl) :   1.2490
B( 12-C , 13-C ) :   0.8505 B( 12-C , 18-Cl) :   1.2490 B( 13-C , 14-C ) :   1.0348
B( 13-C , 17-Cl) :   1.1666 B( 14-C , 15-Cl) :   1.1300 B( 14-C , 16-Cl) :   1.1301

FINAL SINGLE POINT ENERGY     -3731.256536209448

DIPOLE MOMENT
-------------

Method             : SCF
Type of density    : Electron Density
Multiplicity       :   1
Irrep              :   0
Energy             : -3731.2748564148478181 Eh
Relativity type    :
Basis              : AO
                                X                 Y                 Z
Electronic contribution:    -19.322884064       0.004821731      -9.116805898
Nuclear contribution   :     18.636045983      -0.005625660       7.918303194
                        -----------------------------------------
Total Dipole Moment    :     -0.686838081      -0.000803928      -1.198502704
                        -----------------------------------------
Magnitude (a.u.)       :      1.381360172
Magnitude (Debye)      :      3.511138524

Rotational constants in cm-1:             0.009491             0.005891             0.005686
Rotational constants in MHz :           284.527881           176.594297           170.459790

                             ****ORCA TERMINATED NORMALLY****
TOTAL RUN TIME: 0 days 0 hours 14 minutes 5 seconds 243 msec
