                         Program Version 6.0.0  -   RELEASE  -
|  1> ! wb97x-v def2-tzvp def2/J RIJCOSX DEFGRID2 scfconv7 GCP(DFT/TZ) printgap
|  2> %output
|  3>     printlevel normal
|  4> end
|  5> %cpcm
|  6>     smd true
|  7>     smdsolvent "water"
|  8> end
|  9> * xyz 0 1
| 10> C 1.7242451120237712 1.4864604227518876 0.4319949087414403
| 11> C 0.46194469539444966 0.7876746403965021 0.910944700160741
| 12> H 0.25875654453607344 1.141245765599354 1.9249006687071262
| 13> C 0.460784036409493 -0.7862926070843801 0.9126811263689223
| 14> H 0.2570198841438884 -1.137394490425632 1.927383265262896
| 15> C 1.7220740144746296 -1.4880262778616133 0.43535501841458224
| 16> O 2.784750320312449 -1.2862109076495392 1.4117776712405448
| 17> S 3.8076573498886868 -0.0015940336209302323 1.0593346427396069
| 18> O 4.7371458268815925 -0.0009959730093343634 2.2042275599176113
| 19> O 2.7866164962963396 1.2852668503127238 1.4088942784667216
| 20> C -0.7751429589631924 -1.1242346789151703 0.021235130423355904
| 21> C -0.46412366350283757 -0.6706386721511842 -1.3990584671061432
| 22> C -0.4631892544796029 0.6685031452136857 -1.400482423957117
| 23> C -0.7735292531429742 1.1255315338156262 0.01885449269261062
| 24> C -1.775410979667208 0.001799945947339821 0.4257797100101614
| 25> Cl -3.287119751213893 0.0018777839438613346 -0.5323544275028971
| 26> Cl -2.21617759147956 0.003952713657419716 2.1552393833674977
| 27> Cl -1.3793652267833985 2.783591221332686 0.18033297483750374
| 28> Cl -0.08803687601267841 1.7182378684461286 -2.690351725763341
| 29> Cl -0.09045907334204065 -1.723597978233538 -2.6867335185923182
| 30> Cl -1.3834033901271163 -2.781059298959368 0.186178448517328
| 31> H 1.5679852833822796 2.5673594828213218 0.396766712639208
| 32> H 2.055738901650907 1.1570946271426128 -0.5602897599525135
| 33> H 1.5641768240189917 -2.568763763952688 0.40259427720305285
| 34> H 2.054061754420013 -1.1614613475135718 -0.5576795244557666
| 35> *
| 36>
| 37>                          ****END OF INPUT****

CARTESIAN COORDINATES (ANGSTROEM)
---------------------------------
  C      1.724245    1.486460    0.431995
  C      0.461945    0.787675    0.910945
  H      0.258757    1.141246    1.924901
  C      0.460784   -0.786293    0.912681
  H      0.257020   -1.137394    1.927383
  C      1.722074   -1.488026    0.435355
  O      2.784750   -1.286211    1.411778
  S      3.807657   -0.001594    1.059335
  O      4.737146   -0.000996    2.204228
  O      2.786616    1.285267    1.408894
  C     -0.775143   -1.124235    0.021235
  C     -0.464124   -0.670639   -1.399058
  C     -0.463189    0.668503   -1.400482
  C     -0.773529    1.125532    0.018854
  C     -1.775411    0.001800    0.425780
  Cl    -3.287120    0.001878   -0.532354
  Cl    -2.216178    0.003953    2.155239
  Cl    -1.379365    2.783591    0.180333
  Cl    -0.088037    1.718238   -2.690352
  Cl    -0.090459   -1.723598   -2.686734
  Cl    -1.383403   -2.781059    0.186178
  H      1.567985    2.567359    0.396767
  H      2.055739    1.157095   -0.560290
  H      1.564177   -2.568764    0.402594
  H      2.054062   -1.161461   -0.557680

 Total Charge           Charge          ....    0
 Multiplicity           Mult            ....    1
 Number of Electrons    NEL             ....  202
 Basis Dimension        Dim             ....  667

ORBITAL ENERGIES
----------------

  NO   OCC          E(Eh)            E(eV)
   0   2.0000    -107.180072     -2916.5180
   1   2.0000    -107.180045     -2916.5173
   2   2.0000    -107.170893     -2916.2682
   3   2.0000    -107.167643     -2916.1798
   4   2.0000    -107.165228     -2916.1141
   5   2.0000    -107.165214     -2916.1137
   6   2.0000     -94.323238     -2566.6658
   7   2.0000     -21.732177      -591.3626
   8   2.0000     -21.732159      -591.3621
   9   2.0000     -21.692708      -590.2886
  10   2.0000     -12.219311      -332.5043
  11   2.0000     -12.178711      -331.3996
  12   2.0000     -12.178174      -331.3850
  13   2.0000     -12.152887      -330.6969
  14   2.0000     -12.150339      -330.6275
  15   2.0000     -12.125030      -329.9388
  16   2.0000     -12.124856      -329.9341
  17   2.0000     -12.097895      -329.2005
  18   2.0000     -12.096803      -329.1707
  19   2.0000     -11.332736      -308.3794
  20   2.0000     -11.332718      -308.3789
  21   2.0000     -11.324251      -308.1485
  22   2.0000     -11.320921      -308.0579
  23   2.0000     -11.318418      -307.9898
  24   2.0000     -11.318386      -307.9889
  25   2.0000      -9.811143      -266.9748
  26   2.0000      -9.124786      -248.2981
  27   2.0000      -9.124233      -248.2830
  28   2.0000      -9.121879      -248.2190
  29   2.0000      -9.121817      -248.2173
  30   2.0000      -9.121347      -248.2045
  31   2.0000      -9.121220      -248.2010
  32   2.0000      -9.116025      -248.0596
  33   2.0000      -9.113357      -247.9870
  34   2.0000      -9.112904      -247.9747
  35   2.0000      -9.112084      -247.9524
  36   2.0000      -9.110294      -247.9037
  37   2.0000      -9.109809      -247.8905
  38   2.0000      -9.109589      -247.8845
  39   2.0000      -9.109432      -247.8802
  40   2.0000      -9.107223      -247.8201
  41   2.0000      -9.107128      -247.8175
  42   2.0000      -9.107123      -247.8174
  43   2.0000      -9.107065      -247.8158
  44   2.0000      -7.790019      -211.9772
  45   2.0000      -7.789437      -211.9613
  46   2.0000      -7.785319      -211.8493
  47   2.0000      -1.763124       -47.9771
  48   2.0000      -1.708471       -46.4899
  49   2.0000      -1.700923       -46.2845
  50   2.0000      -1.527071       -41.5537
  51   2.0000      -1.472116       -40.0583
  52   2.0000      -1.456862       -39.6432
  53   2.0000      -1.437236       -39.1092
  54   2.0000      -1.436267       -39.0828
  55   2.0000      -1.410190       -38.3732
  56   2.0000      -1.397746       -38.0346
  57   2.0000      -1.345718       -36.6188
  58   2.0000      -1.299731       -35.3675
  59   2.0000      -1.293257       -35.1913
  60   2.0000      -1.247271       -33.9400
  61   2.0000      -1.235504       -33.6198
  62   2.0000      -1.166191       -31.7337
  63   2.0000      -1.127000       -30.6672
  64   2.0000      -1.097054       -29.8524
  65   2.0000      -1.078040       -29.3350
  66   2.0000      -1.074905       -29.2497
  67   2.0000      -1.043470       -28.3943
  68   2.0000      -1.031559       -28.0701
  69   2.0000      -1.020360       -27.7654
  70   2.0000      -1.010961       -27.5097
  71   2.0000      -0.987001       -26.8577
  72   2.0000      -0.981149       -26.6984
  73   2.0000      -0.969845       -26.3908
  74   2.0000      -0.961839       -26.1730
  75   2.0000      -0.959434       -26.1075
  76   2.0000      -0.945455       -25.7271
  77   2.0000      -0.943826       -25.6828
  78   2.0000      -0.929548       -25.2943
  79   2.0000      -0.923535       -25.1307
  80   2.0000      -0.922384       -25.0994
  81   2.0000      -0.911255       -24.7965
  82   2.0000      -0.887716       -24.1560
  83   2.0000      -0.871152       -23.7053
  84   2.0000      -0.860825       -23.4242
  85   2.0000      -0.849140       -23.1063
  86   2.0000      -0.839297       -22.8384
  87   2.0000      -0.837190       -22.7811
  88   2.0000      -0.830433       -22.5972
  89   2.0000      -0.829885       -22.5823
  90   2.0000      -0.823082       -22.3972
  91   2.0000      -0.819837       -22.3089
  92   2.0000      -0.817223       -22.2378
  93   2.0000      -0.813191       -22.1280
  94   2.0000      -0.813059       -22.1245
  95   2.0000      -0.808867       -22.0104
  96   2.0000      -0.806647       -21.9500
  97   2.0000      -0.797547       -21.7024
  98   2.0000      -0.796723       -21.6799
  99   2.0000      -0.785383       -21.3713
 100   2.0000      -0.712168       -19.3791
 101   0.0000      -0.369503       -10.0547
 102   0.0000      -0.363026        -9.8784
 103   0.0000      -0.361198        -9.8287
 104   0.0000      -0.319978        -8.7070
 105   0.0000      -0.307720        -8.3735

MULLIKEN ATOMIC CHARGES
-----------------------
   0 C :   -0.199959
   1 C :   -0.088078
   2 H :    0.172421
   3 C :   -0.088230
   4 H :    0.172411
   5 C :   -0.199862
   6 O :   -0.309689
   7 S :    0.702723
   8 O :   -0.522505
   9 O :   -0.309682
  10 C :    0.192965
  11 C :   -0.149341
  12 C :   -0.149489
  13 C :    0.192733
  14 C :    0.075666
  15 Cl:   -0.061716
  16 Cl:   -0.056355
  17 Cl:   -0.064897
  18 Cl:    0.000037
  19 Cl:    0.000044
  20 Cl:   -0.064926
  21 H :    0.173286
  22 H :    0.204603
  23 H :    0.173235
  24 H :    0.204602
Sum of atomic charges:    0.0000000

LOEWDIN ATOMIC CHARGES
----------------------
   0 C :   -0.294613
   1 C :   -0.192868
   2 H :    0.171981
   3 C :   -0.192863
   4 H :    0.171977
   5 C :   -0.294625
   6 O :   -0.065630
   7 S :    0.648879
   8 O :   -0.395641
   9 O :   -0.065626
  10 C :   -0.480529
  11 C :   -0.474077
  12 C :   -0.474081
  13 C :   -0.480535
  14 C :   -0.697976
  15 Cl:    0.388603
  16 Cl:    0.404396
  17 Cl:    0.402940
  18 Cl:    0.473888
  19 Cl:    0.473882
  20 Cl:    0.402945
  21 H :    0.148065
  22 H :    0.136725
  23 H :    0.148062
  24 H :    0.136720

  Mayer bond orders larger than 0.100000
B(  0-C ,  1-C ) :   0.9030 B(  0-C ,  9-O ) :   0.8978 B(  0-C , 21-H ) :   0.9527
B(  0-C , 22-H ) :   0.9893 B(  1-C ,  2-H ) :   0.9340 B(  1-C ,  3-C ) :   0.9363
B(  1-C , 13-C ) :   0.9050 B(  3-C ,  4-H ) :   0.9340 B(  3-C ,  5-C ) :   0.9032
B(  3-C , 10-C ) :   0.9049 B(  5-C ,  6-O ) :   0.8978 B(  5-C , 23-H ) :   0.9527
B(  5-C , 24-H ) :   0.9893 B(  6-O ,  7-S ) :   1.0230 B(  7-S ,  8-O ) :   1.8256
B(  7-S ,  9-O ) :   1.0231 B( 10-C , 11-C ) :   0.8647 B( 10-C , 14-C ) :   1.0447
B( 10-C , 20-Cl) :   1.1347 B( 11-C , 12-C ) :   1.6894 B( 11-C , 19-Cl) :   1.2338
B( 12-C , 13-C ) :   0.8647 B( 12-C , 18-Cl) :   1.2338 B( 13-C , 14-C ) :   1.0447
B( 13-C , 17-Cl) :   1.1350 B( 14-C , 15-Cl) :   1.1225 B( 14-C , 16-Cl) :   1.1382

FINAL SINGLE POINT ENERGY     -3731.272406176193

DIPOLE MOMENT
-------------

Method             : SCF
Type of density    : Electron Density
Multiplicity       :   1
Irrep              :   0
Energy             : -3731.2907263815932311 Eh
Relativity type    :
Basis              : AO
                                X                 Y                 Z
Electronic contribution:    -19.329726685       0.004332878      -9.551520020
Nuclear contribution   :     18.636045983      -0.005625660       7.918303194
                        -----------------------------------------
Total Dipole Moment    :     -0.693680701      -0.001292782      -1.633216825
                        -----------------------------------------
Magnitude (a.u.)       :      1.774427171
Magnitude (Debye)      :      4.510235435

Rotational constants in cm-1:             0.009491             0.005891             0.005686
Rotational constants in MHz :           284.527881           176.594297           170.459790

                             ****ORCA TERMINATED NORMALLY****
TOTAL RUN TIME: 0 days 0 hours 15 minutes 54 seconds 381 msec
