                         Program Version 6.0.0  -   RELEASE  -
|  1> ! r2scan-3c def2/J RI DEFGRID2 scfconv6 printgap
|  2> %output
|  3>     printlevel normal
|  4> end
|  5> * xyz 0 1
|  6> C 2.0677058495 0.0307817241 -0.126128333
|  7> C 0.7630546935 0.6935778507 0.3005572822
|  8> C -0.4591259377 0.0059190177 -0.3232098581
|  9> H -0.3246161897 -0.0535410279 -1.4095374853
| 10> C -1.7429213408 0.7750018153 -0.009045877
| 11> O -0.5591577061 -1.3474536295 0.0860552642
| 12> H 2.2220995888 0.1529075637 -1.1957576963
| 13> H 2.034881071 -1.0342571775 0.0920543964
| 14> H 2.9109003634 0.471137162 0.3994297743
| 15> H 0.763773897 1.7415376173 -0.001247301
| 16> H 0.6711834948 0.6557391588 1.3888361098
| 17> H -2.6014497081 0.2382931706 -0.4050545649
| 18> H -1.8635314132 0.8864219715 1.0666209504
| 19> H -1.7069491656 1.7618107478 -0.4603575918
| 20> H -0.7223995052 -1.3685260714 1.0397091633
| 21> *
| 22>
| 23>                          ****END OF INPUT****

CARTESIAN COORDINATES (ANGSTROEM)
---------------------------------
  C      2.067706    0.030782   -0.126128
  C      0.763055    0.693578    0.300557
  C     -0.459126    0.005919   -0.323210
  H     -0.324616   -0.053541   -1.409537
  C     -1.742921    0.775002   -0.009046
  O     -0.559158   -1.347454    0.086055
  H      2.222100    0.152908   -1.195758
  H      2.034881   -1.034257    0.092054
  H      2.910900    0.471137    0.399430
  H      0.763774    1.741538   -0.001247
  H      0.671183    0.655739    1.388836
  H     -2.601450    0.238293   -0.405055
  H     -1.863531    0.886422    1.066621
  H     -1.706949    1.761811   -0.460358
  H     -0.722400   -1.368526    1.039709

 Total Charge           Charge          ....    0
 Multiplicity           Mult            ....    1
 Number of Electrons    NEL             ....   42
 Basis Dimension        Dim             ....  150

ORBITAL ENERGIES
----------------

  NO   OCC          E(Eh)            E(eV)
   0   2.0000     -18.944249      -515.4992
   1   2.0000     -10.079326      -274.2724
   2   2.0000     -10.025986      -272.8210
   3   2.0000     -10.019254      -272.6378
   4   2.0000     -10.012768      -272.4613
   5   2.0000      -0.983231       -26.7551
   6   2.0000      -0.750638       -20.4259
   7   2.0000      -0.693162       -18.8619
   8   2.0000      -0.600269       -16.3341
   9   2.0000      -0.561588       -15.2816
  10   2.0000      -0.448220       -12.1967
  11   2.0000      -0.435944       -11.8627
  12   2.0000      -0.410205       -11.1622
  13   2.0000      -0.390621       -10.6293
  14   2.0000      -0.375729       -10.2241
  15   2.0000      -0.339805        -9.2466
  16   2.0000      -0.335417        -9.1272
  17   2.0000      -0.312674        -8.5083
  18   2.0000      -0.308176        -8.3859
  19   2.0000      -0.282576        -7.6893
  20   2.0000      -0.233749        -6.3606
  21   0.0000       0.069088         1.8800
  22   0.0000       0.110748         3.0136
  23   0.0000       0.112796         3.0693
  24   0.0000       0.124459         3.3867
  25   0.0000       0.142442         3.8760

MULLIKEN ATOMIC CHARGES
-----------------------
   0 C :   -0.493579
   1 C :   -0.214195
   2 C :    0.012751
   3 H :    0.134361
   4 C :   -0.475679
   5 O :   -0.414836
   6 H :    0.142419
   7 H :    0.166667
   8 H :    0.144520
   9 H :    0.132912
  10 H :    0.131833
  11 H :    0.162869
  12 H :    0.135734
  13 H :    0.144980
  14 H :    0.289244
Sum of atomic charges:   -0.0000000

LOEWDIN ATOMIC CHARGES
----------------------
   0 C :   -0.421439
   1 C :   -0.297951
   2 C :    0.040060
   3 H :    0.179433
   4 C :   -0.401427
   5 O :   -0.610687
   6 H :    0.151131
   7 H :    0.161527
   8 H :    0.148974
   9 H :    0.157672
  10 H :    0.154329
  11 H :    0.161260
  12 H :    0.152988
  13 H :    0.157462
  14 H :    0.266669

  Mayer bond orders larger than 0.100000
B(  0-C ,  1-C ) :   0.9057 B(  0-C ,  6-H ) :   0.9823 B(  0-C ,  7-H ) :   0.9767
B(  0-C ,  8-H ) :   0.9755 B(  1-C ,  2-C ) :   0.9439 B(  1-C ,  9-H ) :   0.9636
B(  1-C , 10-H ) :   0.9685 B(  2-C ,  3-H ) :   0.9518 B(  2-C ,  4-C ) :   0.9437
B(  2-C ,  5-O ) :   0.9067 B(  4-C , 11-H ) :   0.9751 B(  4-C , 12-H ) :   0.9730
B(  4-C , 13-H ) :   0.9751 B(  5-O , 14-H ) :   0.8968

Dispersion correction           -0.003151015
FINAL SINGLE POINT ENERGY      -233.604393974395

DIPOLE MOMENT
-------------

Method             : SCF
Type of density    : Electron Density
Multiplicity       :   1
Irrep              :   0
Energy             :  -233.6094198763375402 Eh
Relativity type    :
Basis              : AO
                                X                 Y                 Z
Electronic contribution:     -1.342465961      -2.717410143      -0.137987794
Nuclear contribution   :      1.290005547       3.218064205       0.484153951
                        -----------------------------------------
Total Dipole Moment    :     -0.052460414       0.500654062       0.346166157
                        -----------------------------------------
Magnitude (a.u.)       :      0.610931742
Magnitude (Debye)      :      1.552865080

Rotational constants in cm-1:             0.265222             0.115610             0.089798
Rotational constants in MHz :          7951.159681          3465.888745          2692.068207

                             ****ORCA TERMINATED NORMALLY****
TOTAL RUN TIME: 0 days 0 hours 0 minutes 14 seconds 720 msec
