                         Program Version 6.0.0  -   RELEASE  -
|  1> ! r2scan-3c def2/J RI DEFGRID2 scfconv6 printgap
|  2> %output
|  3>     printlevel normal
|  4> end
|  5> %cpcm
|  6>     smd true
|  7>     smdsolvent "water"
|  8> end
|  9> * xyz 0 1
| 10> C 2.0677058495 0.0307817241 -0.126128333
| 11> C 0.7630546935 0.6935778507 0.3005572822
| 12> C -0.4591259377 0.0059190177 -0.3232098581
| 13> H -0.3246161897 -0.0535410279 -1.4095374853
| 14> C -1.7429213408 0.7750018153 -0.009045877
| 15> O -0.5591577061 -1.3474536295 0.0860552642
| 16> H 2.2220995888 0.1529075637 -1.1957576963
| 17> H 2.034881071 -1.0342571775 0.0920543964
| 18> H 2.9109003634 0.471137162 0.3994297743
| 19> H 0.763773897 1.7415376173 -0.001247301
| 20> H 0.6711834948 0.6557391588 1.3888361098
| 21> H -2.6014497081 0.2382931706 -0.4050545649
| 22> H -1.8635314132 0.8864219715 1.0666209504
| 23> H -1.7069491656 1.7618107478 -0.4603575918
| 24> H -0.7223995052 -1.3685260714 1.0397091633
| 25> *
| 26>
| 27>                          ****END OF INPUT****

CARTESIAN COORDINATES (ANGSTROEM)
---------------------------------
  C      2.067706    0.030782   -0.126128
  C      0.763055    0.693578    0.300557
  C     -0.459126    0.005919   -0.323210
  H     -0.324616   -0.053541   -1.409537
  C     -1.742921    0.775002   -0.009046
  O     -0.559158   -1.347454    0.086055
  H      2.222100    0.152908   -1.195758
  H      2.034881   -1.034257    0.092054
  H      2.910900    0.471137    0.399430
  H      0.763774    1.741538   -0.001247
  H      0.671183    0.655739    1.388836
  H     -2.601450    0.238293   -0.405055
  H     -1.863531    0.886422    1.066621
  H     -1.706949    1.761811   -0.460358
  H     -0.722400   -1.368526    1.039709

 Total Charge           Charge          ....    0
 Multiplicity           Mult            ....    1
 Number of Electrons    NEL             ....   42
 Basis Dimension        Dim             ....  150

ORBITAL ENERGIES
----------------

  NO   OCC          E(Eh)            E(eV)
   0   2.0000     -18.947407      -515.5852
   1   2.0000     -10.073582      -274.1161
   2   2.0000     -10.016228      -272.5554
   3   2.0000     -10.008909      -272.3563
   4   2.0000     -10.007660      -272.3223
   5   2.0000      -0.985110       -26.8062
   6   2.0000      -0.743402       -20.2290
   7   2.0000      -0.685747       -18.6601
   8   2.0000      -0.593735       -16.1563
   9   2.0000      -0.555992       -15.1293
  10   2.0000      -0.441839       -12.0230
  11   2.0000      -0.431816       -11.7503
  12   2.0000      -0.405861       -11.0440
  13   2.0000      -0.382689       -10.4135
  14   2.0000      -0.368755       -10.0343
  15   2.0000      -0.336653        -9.1608
  16   2.0000      -0.328951        -8.9512
  17   2.0000      -0.307173        -8.3586
  18   2.0000      -0.300438        -8.1753
  19   2.0000      -0.280254        -7.6261
  20   2.0000      -0.237005        -6.4492
  21   0.0000       0.084674         2.3041
  22   0.0000       0.118696         3.2299
  23   0.0000       0.124873         3.3980
  24   0.0000       0.132995         3.6190
  25   0.0000       0.149148         4.0585

MULLIKEN ATOMIC CHARGES
-----------------------
   0 C :   -0.537786
   1 C :   -0.230698
   2 C :    0.043583
   3 H :    0.146127
   4 C :   -0.524416
   5 O :   -0.506128
   6 H :    0.157823
   7 H :    0.158857
   8 H :    0.157914
   9 H :    0.148230
  10 H :    0.154445
  11 H :    0.161853
  12 H :    0.159831
  13 H :    0.163540
  14 H :    0.346826
Sum of atomic charges:   -0.0000000

LOEWDIN ATOMIC CHARGES
----------------------
   0 C :   -0.430464
   1 C :   -0.296944
   2 C :    0.041564
   3 H :    0.182201
   4 C :   -0.405927
   5 O :   -0.648845
   6 H :    0.154103
   7 H :    0.156099
   8 H :    0.153217
   9 H :    0.163388
  10 H :    0.161868
  11 H :    0.160076
  12 H :    0.160658
  13 H :    0.163561
  14 H :    0.285444

  Mayer bond orders larger than 0.100000
B(  0-C ,  1-C ) :   0.8869 B(  0-C ,  6-H ) :   0.9807 B(  0-C ,  7-H ) :   0.9801
B(  0-C ,  8-H ) :   0.9715 B(  1-C ,  2-C ) :   0.9376 B(  1-C ,  9-H ) :   0.9611
B(  1-C , 10-H ) :   0.9689 B(  2-C ,  3-H ) :   0.9547 B(  2-C ,  4-C ) :   0.9332
B(  2-C ,  5-O ) :   0.8900 B(  4-C , 11-H ) :   0.9725 B(  4-C , 12-H ) :   0.9725
B(  4-C , 13-H ) :   0.9709 B(  5-O , 14-H ) :   0.8694

Dispersion correction           -0.003151015
FINAL SINGLE POINT ENERGY      -233.610642959384

DIPOLE MOMENT
-------------

Method             : SCF
Type of density    : Electron Density
Multiplicity       :   1
Irrep              :   0
Energy             :  -233.6156688613266681 Eh
Relativity type    :
Basis              : AO
                                X                 Y                 Z
Electronic contribution:     -1.364155621      -2.472073788       0.039946696
Nuclear contribution   :      1.290005547       3.218064205       0.484153951
                        -----------------------------------------
Total Dipole Moment    :     -0.074150074       0.745990417       0.524100648
                        -----------------------------------------
Magnitude (a.u.)       :      0.914702916
Magnitude (Debye)      :      2.324990043

Rotational constants in cm-1:             0.265222             0.115610             0.089798
Rotational constants in MHz :          7951.159681          3465.888745          2692.068207

                             ****ORCA TERMINATED NORMALLY****
TOTAL RUN TIME: 0 days 0 hours 0 minutes 16 seconds 953 msec
