                         Program Version 6.0.0  -   RELEASE  -
|  1> ! pbe def2-sv(p) def2/J RI DEFGRID1 loosescf d4 GCP(DFT/SV(P)) printgap
|  2> %output
|  3>     printlevel normal
|  4> end
|  5> * xyz 0 1
|  6> C -3.5159781236 0.1381396305 -0.5477681625
|  7> C -2.0165465715 -0.1463156084 -0.5223511514
|  8> H -1.6942291214 -0.3822177577 -1.5418991508
|  9> C -1.6746037225 -1.3334808766 0.3724990006
| 10> C -0.2067068091 -1.6840128246 0.173055093
| 11> C 0.7327701063 -0.5377598193 0.5702860814
| 12> H 1.0522942407 -0.6840489322 1.6091947831
| 13> C 0.1174485905 0.8450990423 0.5553385026
| 14> O 0.7189343191 1.7872756526 1.0459671289
| 15> C -1.2535210765 1.0789839381 -0.0247953202
| 16> C 2.020924884 -0.5553073067 -0.2982739829
| 17> C 1.78227743 0.0846571883 -1.6650144454
| 18> C 3.1862400459 0.130335142 0.4088828663
| 19> H -3.7291447308 1.0082032808 -1.1639237478
| 20> H -4.0559765232 -0.7126928558 -0.9553887317
| 21> H -3.8848675647 0.328360613 0.4577620279
| 22> H -1.8672369749 -1.078023848 1.4165418134
| 23> H -2.294987135 -2.1920087705 0.1122770541
| 24> H 0.0539807875 -2.567671446 0.7575326944
| 25> H -0.0566496723 -1.9346201615 -0.8785180197
| 26> H -1.8240906759 1.5699899576 0.7704973149
| 27> H -1.1462012502 1.8248161485 -0.8168145961
| 28> H 2.2827012718 -1.6088962581 -0.4461147968
| 29> H 0.9186108395 -0.3510265381 -2.160592505
| 30> H 2.6511482481 -0.0614257924 -2.3020982953
| 31> H 1.6166773742 1.1549248302 -1.5564634396
| 32> H 3.4341907551 -0.3861583335 1.3334190504
| 33> H 2.9302117705 1.1598326091 0.6490965253
| 34> H 4.0647340128 0.1328003045 -0.2318129758
| 35> *
| 36>
| 37>                          ****END OF INPUT****

CARTESIAN COORDINATES (ANGSTROEM)
---------------------------------
  C     -3.515978    0.138140   -0.547768
  C     -2.016547   -0.146316   -0.522351
  H     -1.694229   -0.382218   -1.541899
  C     -1.674604   -1.333481    0.372499
  C     -0.206707   -1.684013    0.173055
  C      0.732770   -0.537760    0.570286
  H      1.052294   -0.684049    1.609195
  C      0.117449    0.845099    0.555339
  O      0.718934    1.787276    1.045967
  C     -1.253521    1.078984   -0.024795
  C      2.020925   -0.555307   -0.298274
  C      1.782277    0.084657   -1.665014
  C      3.186240    0.130335    0.408883
  H     -3.729145    1.008203   -1.163924
  H     -4.055977   -0.712693   -0.955389
  H     -3.884868    0.328361    0.457762
  H     -1.867237   -1.078024    1.416542
  H     -2.294987   -2.192009    0.112277
  H      0.053981   -2.567671    0.757533
  H     -0.056650   -1.934620   -0.878518
  H     -1.824091    1.569990    0.770497
  H     -1.146201    1.824816   -0.816815
  H      2.282701   -1.608896   -0.446115
  H      0.918611   -0.351027   -2.160593
  H      2.651148   -0.061426   -2.302098
  H      1.616677    1.154925   -1.556463
  H      3.434191   -0.386158    1.333419
  H      2.930212    1.159833    0.649097
  H      4.064734    0.132800   -0.231813

 Total Charge           Charge          ....    0
 Multiplicity           Mult            ....    1
 Number of Electrons    NEL             ....   86
 Basis Dimension        Dim             ....  190

ORBITAL ENERGIES
----------------

  NO   OCC          E(Eh)            E(eV)
   0   2.0000     -18.728753      -509.6353
   1   2.0000      -9.969765      -271.2911
   2   2.0000      -9.903072      -269.4763
   3   2.0000      -9.902525      -269.4614
   4   2.0000      -9.897565      -269.3264
   5   2.0000      -9.890280      -269.1282
   6   2.0000      -9.889307      -269.1017
   7   2.0000      -9.889031      -269.0942
   8   2.0000      -9.878649      -268.8117
   9   2.0000      -9.876254      -268.7465
  10   2.0000      -9.862504      -268.3724
  11   2.0000      -0.929261       -25.2865
  12   2.0000      -0.765665       -20.8348
  13   2.0000      -0.730534       -19.8788
  14   2.0000      -0.678651       -18.4670
  15   2.0000      -0.649332       -17.6692
  16   2.0000      -0.616459       -16.7747
  17   2.0000      -0.607584       -16.5332
  18   2.0000      -0.551572       -15.0090
  19   2.0000      -0.525846       -14.3090
  20   2.0000      -0.506980       -13.7956
  21   2.0000      -0.466229       -12.6867
  22   2.0000      -0.437108       -11.8943
  23   2.0000      -0.421228       -11.4622
  24   2.0000      -0.408756       -11.1228
  25   2.0000      -0.398605       -10.8466
  26   2.0000      -0.386070       -10.5055
  27   2.0000      -0.378208       -10.2916
  28   2.0000      -0.368181       -10.0187
  29   2.0000      -0.362530        -9.8649
  30   2.0000      -0.349577        -9.5125
  31   2.0000      -0.340740        -9.2720
  32   2.0000      -0.333499        -9.0750
  33   2.0000      -0.332451        -9.0464
  34   2.0000      -0.317202        -8.6315
  35   2.0000      -0.307202        -8.3594
  36   2.0000      -0.301981        -8.2173
  37   2.0000      -0.291657        -7.9364
  38   2.0000      -0.290794        -7.9129
  39   2.0000      -0.282898        -7.6980
  40   2.0000      -0.271807        -7.3962
  41   2.0000      -0.268094        -7.2952
  42   2.0000      -0.185964        -5.0603
  43   0.0000      -0.055658        -1.5145
  44   0.0000       0.025181         0.6852
  45   0.0000       0.043666         1.1882
  46   0.0000       0.046971         1.2781
  47   0.0000       0.063000         1.7143

MULLIKEN ATOMIC CHARGES
-----------------------
   0 C :   -0.206551
   1 C :   -0.209998
   2 H :    0.074546
   3 C :   -0.121265
   4 C :   -0.085849
   5 C :   -0.123806
   6 H :    0.087323
   7 C :   -0.006177
   8 O :   -0.173420
   9 C :   -0.100023
  10 C :   -0.172514
  11 C :   -0.267452
  12 C :   -0.233237
  13 H :    0.101420
  14 H :    0.098504
  15 H :    0.093853
  16 H :    0.079299
  17 H :    0.081797
  18 H :    0.083704
  19 H :    0.078234
  20 H :    0.104883
  21 H :    0.109177
  22 H :    0.077287
  23 H :    0.100994
  24 H :    0.104675
  25 H :    0.119595
  26 H :    0.091587
  27 H :    0.122141
  28 H :    0.091272
Sum of atomic charges:    0.0000000

LOEWDIN ATOMIC CHARGES
----------------------
   0 C :   -0.327557
   1 C :   -0.154741
   2 H :    0.115101
   3 C :   -0.217583
   4 C :   -0.217988
   5 C :   -0.159593
   6 H :    0.139925
   7 C :    0.058964
   8 O :   -0.136284
   9 C :   -0.241317
  10 C :   -0.132313
  11 C :   -0.335792
  12 C :   -0.337539
  13 H :    0.119487
  14 H :    0.118567
  15 H :    0.118080
  16 H :    0.115954
  17 H :    0.118215
  18 H :    0.121037
  19 H :    0.115958
  20 H :    0.144265
  21 H :    0.143339
  22 H :    0.115767
  23 H :    0.112747
  24 H :    0.122405
  25 H :    0.123072
  26 H :    0.115554
  27 H :    0.127625
  28 H :    0.114646

  Mayer bond orders larger than 0.100000
B(  0-C ,  1-C ) :   1.1179 B(  0-C , 13-H ) :   0.9491 B(  0-C , 14-H ) :   0.9477
B(  0-C , 15-H ) :   0.9427 B(  1-C ,  2-H ) :   0.8911 B(  1-C ,  3-C ) :   1.1003
B(  1-C ,  9-C ) :   1.0501 B(  3-C ,  4-C ) :   1.1460 B(  3-C , 16-H ) :   0.9084
B(  3-C , 17-H ) :   0.9146 B(  4-C ,  5-C ) :   1.0577 B(  4-C , 18-H ) :   0.9041
B(  4-C , 19-H ) :   0.9003 B(  5-C ,  6-H ) :   0.8642 B(  5-C ,  7-C ) :   0.9842
B(  5-C , 10-C ) :   1.0166 B(  7-C ,  8-O ) :   2.1231 B(  7-C ,  9-C ) :   1.0330
B(  9-C , 20-H ) :   0.8873 B(  9-C , 21-H ) :   0.8818 B( 10-C , 11-C ) :   1.1156
B( 10-C , 12-C ) :   1.1182 B( 10-C , 22-H ) :   0.9046 B( 11-C , 23-H ) :   0.9410
B( 11-C , 24-H ) :   0.9456 B( 11-C , 25-H ) :   0.9329 B( 12-C , 26-H ) :   0.9462
B( 12-C , 27-H ) :   0.9286 B( 12-C , 28-H ) :   0.9454

Dispersion correction           -0.030420255
FINAL SINGLE POINT ENERGY      -466.028722276877

DIPOLE MOMENT
-------------

Method             : SCF
Type of density    : Electron Density
Multiplicity       :   1
Irrep              :   0
Energy             :  -466.1254776312781587 Eh
Relativity type    :
Basis              : AO
                                X                 Y                 Z
Electronic contribution:      0.957362817       3.688661725       4.198228759
Nuclear contribution   :     -1.442398843      -4.457791432      -4.625875698
                        -----------------------------------------
Total Dipole Moment    :     -0.485036026      -0.769129707      -0.427646939
                        -----------------------------------------
Magnitude (a.u.)       :      1.004839468
Magnitude (Debye)      :      2.554098951

Rotational constants in cm-1:             0.064205             0.024617             0.022076
Rotational constants in MHz :          1924.815101           737.986526           661.831547

                             ****ORCA TERMINATED NORMALLY****
TOTAL RUN TIME: 0 days 0 hours 0 minutes 13 seconds 703 msec
