                         Program Version 6.0.0  -   RELEASE  -
|  1> ! r2scan-3c def2/J RI DEFGRID2 scfconv6 printgap
|  2> %output
|  3>     printlevel normal
|  4> end
|  5> * xyz 0 1
|  6> C 0.7316610791 -1.4875010086 -0.0833424879
|  7> C 0.5339324578 -0.0704135314 0.4591150147
|  8> C 1.3069092876 0.952094787 -0.3766416812
|  9> O -0.8421476292 0.273939068 0.6237832047
| 10> C -1.6335594434 0.3182867998 -0.5468973115
| 11> H 0.1014092799 -2.1856338602 0.4623012297
| 12> H 0.4857192445 -1.5384028023 -1.1412206967
| 13> H 1.7700187041 -1.7776729884 0.0435456151
| 14> H 0.8976892684 -0.0319049523 1.4930977649
| 15> H 1.0515064801 0.8682092481 -1.4301627119
| 16> H 2.3719396893 0.7740574111 -0.2648535199
| 17> H 1.0802390762 1.9591455293 -0.0349121027
| 18> H -1.2713213032 1.0718138396 -1.2512795041
| 19> H -2.6302813492 0.5937650699 -0.2088479253
| 20> H -1.6777632744 -0.655434373 -1.0419554931
| 21> *
| 22>
| 23>                          ****END OF INPUT****

CARTESIAN COORDINATES (ANGSTROEM)
---------------------------------
  C      0.731661   -1.487501   -0.083342
  C      0.533932   -0.070414    0.459115
  C      1.306909    0.952095   -0.376642
  O     -0.842148    0.273939    0.623783
  C     -1.633559    0.318287   -0.546897
  H      0.101409   -2.185634    0.462301
  H      0.485719   -1.538403   -1.141221
  H      1.770019   -1.777673    0.043546
  H      0.897689   -0.031905    1.493098
  H      1.051506    0.868209   -1.430163
  H      2.371940    0.774057   -0.264854
  H      1.080239    1.959146   -0.034912
  H     -1.271321    1.071814   -1.251280
  H     -2.630281    0.593765   -0.208848
  H     -1.677763   -0.655434   -1.041955

 Total Charge           Charge          ....    0
 Multiplicity           Mult            ....    1
 Number of Electrons    NEL             ....   42
 Basis Dimension        Dim             ....  150

ORBITAL ENERGIES
----------------

  NO   OCC          E(Eh)            E(eV)
   0   2.0000     -18.942284      -515.4458
   1   2.0000     -10.080399      -274.3016
   2   2.0000     -10.064580      -273.8711
   3   2.0000     -10.018518      -272.6177
   4   2.0000     -10.018502      -272.6173
   5   2.0000      -0.985924       -26.8283
   6   2.0000      -0.744652       -20.2630
   7   2.0000      -0.656609       -17.8672
   8   2.0000      -0.651435       -17.7264
   9   2.0000      -0.535141       -14.5619
  10   2.0000      -0.458573       -12.4784
  11   2.0000      -0.432274       -11.7628
  12   2.0000      -0.419015       -11.4020
  13   2.0000      -0.378182       -10.2909
  14   2.0000      -0.376193       -10.2367
  15   2.0000      -0.367856       -10.0099
  16   2.0000      -0.352023        -9.5790
  17   2.0000      -0.317988        -8.6529
  18   2.0000      -0.317222        -8.6321
  19   2.0000      -0.265492        -7.2244
  20   2.0000      -0.215457        -5.8629
  21   0.0000       0.077555         2.1104
  22   0.0000       0.091361         2.4861
  23   0.0000       0.126125         3.4320
  24   0.0000       0.126419         3.4400
  25   0.0000       0.138385         3.7657

MULLIKEN ATOMIC CHARGES
-----------------------
   0 C :   -0.479263
   1 C :    0.019217
   2 C :   -0.478874
   3 O :   -0.235046
   4 C :   -0.298888
   5 H :    0.162898
   6 H :    0.146091
   7 H :    0.145179
   8 H :    0.145629
   9 H :    0.146024
  10 H :    0.145106
  11 H :    0.162860
  12 H :    0.135873
  13 H :    0.147276
  14 H :    0.135917
Sum of atomic charges:   -0.0000000

LOEWDIN ATOMIC CHARGES
----------------------
   0 C :   -0.401733
   1 C :    0.040395
   2 C :   -0.401698
   3 O :   -0.783137
   4 C :   -0.072742
   5 H :    0.162958
   6 H :    0.153713
   7 H :    0.159207
   8 H :    0.182538
   9 H :    0.153711
  10 H :    0.159193
  11 H :    0.162930
  12 H :    0.154288
  13 H :    0.176061
  14 H :    0.154316

  Mayer bond orders larger than 0.100000
B(  0-C ,  1-C ) :   0.9283 B(  0-C ,  5-H ) :   0.9702 B(  0-C ,  6-H ) :   0.9740
B(  0-C ,  7-H ) :   0.9642 B(  1-C ,  2-C ) :   0.9287 B(  1-C ,  3-O ) :   0.9139
B(  1-C ,  8-H ) :   0.9570 B(  2-C ,  9-H ) :   0.9740 B(  2-C , 10-H ) :   0.9642
B(  2-C , 11-H ) :   0.9702 B(  3-O ,  4-C ) :   0.8956 B(  4-C , 12-H ) :   0.9625
B(  4-C , 13-H ) :   0.9738 B(  4-C , 14-H ) :   0.9625

Dispersion correction           -0.003240771
FINAL SINGLE POINT ENERGY      -233.584790076472

DIPOLE MOMENT
-------------

Method             : SCF
Type of density    : Electron Density
Multiplicity       :   1
Irrep              :   0
Energy             :  -233.5915582862072597 Eh
Relativity type    :
Basis              : AO
                                X                 Y                 Z
Electronic contribution:     -1.778598855       0.749554949       2.731418608
Nuclear contribution   :      2.031886789      -0.860970975      -3.156375789
                        -----------------------------------------
Total Dipole Moment    :      0.253287934      -0.111416026      -0.424957181
                        -----------------------------------------
Magnitude (a.u.)       :      0.507106413
Magnitude (Debye)      :      1.288962066

Rotational constants in cm-1:             0.216105             0.138287             0.108473
Rotational constants in MHz :          6478.657708          4145.729099          3251.940184

                             ****ORCA TERMINATED NORMALLY****
TOTAL RUN TIME: 0 days 0 hours 0 minutes 15 seconds 816 msec
