                         Program Version 6.0.0  -   RELEASE  -
|  1> ! r2scan-3c def2/J RI DEFGRID2 scfconv6 printgap
|  2> %output
|  3>     printlevel normal
|  4> end
|  5> %cpcm
|  6>     smd true
|  7>     smdsolvent "water"
|  8> end
|  9> * xyz 0 1
| 10> C 0.7316610791 -1.4875010086 -0.0833424879
| 11> C 0.5339324578 -0.0704135314 0.4591150147
| 12> C 1.3069092876 0.952094787 -0.3766416812
| 13> O -0.8421476292 0.273939068 0.6237832047
| 14> C -1.6335594434 0.3182867998 -0.5468973115
| 15> H 0.1014092799 -2.1856338602 0.4623012297
| 16> H 0.4857192445 -1.5384028023 -1.1412206967
| 17> H 1.7700187041 -1.7776729884 0.0435456151
| 18> H 0.8976892684 -0.0319049523 1.4930977649
| 19> H 1.0515064801 0.8682092481 -1.4301627119
| 20> H 2.3719396893 0.7740574111 -0.2648535199
| 21> H 1.0802390762 1.9591455293 -0.0349121027
| 22> H -1.2713213032 1.0718138396 -1.2512795041
| 23> H -2.6302813492 0.5937650699 -0.2088479253
| 24> H -1.6777632744 -0.655434373 -1.0419554931
| 25> *
| 26>
| 27>                          ****END OF INPUT****

CARTESIAN COORDINATES (ANGSTROEM)
---------------------------------
  C      0.731661   -1.487501   -0.083342
  C      0.533932   -0.070414    0.459115
  C      1.306909    0.952095   -0.376642
  O     -0.842148    0.273939    0.623783
  C     -1.633559    0.318287   -0.546897
  H      0.101409   -2.185634    0.462301
  H      0.485719   -1.538403   -1.141221
  H      1.770019   -1.777673    0.043546
  H      0.897689   -0.031905    1.493098
  H      1.051506    0.868209   -1.430163
  H      2.371940    0.774057   -0.264854
  H      1.080239    1.959146   -0.034912
  H     -1.271321    1.071814   -1.251280
  H     -2.630281    0.593765   -0.208848
  H     -1.677763   -0.655434   -1.041955

 Total Charge           Charge          ....    0
 Multiplicity           Mult            ....    1
 Number of Electrons    NEL             ....   42
 Basis Dimension        Dim             ....  150

ORBITAL ENERGIES
----------------

  NO   OCC          E(Eh)            E(eV)
   0   2.0000     -18.950364      -515.6656
   1   2.0000     -10.076730      -274.2018
   2   2.0000     -10.059538      -273.7339
   3   2.0000     -10.009785      -272.3801
   4   2.0000     -10.009781      -272.3800
   5   2.0000      -0.992314       -27.0022
   6   2.0000      -0.739470       -20.1220
   7   2.0000      -0.648840       -17.6558
   8   2.0000      -0.648487       -17.6462
   9   2.0000      -0.530684       -14.4406
  10   2.0000      -0.455976       -12.4077
  11   2.0000      -0.429006       -11.6739
  12   2.0000      -0.417455       -11.3595
  13   2.0000      -0.374982       -10.2038
  14   2.0000      -0.368604       -10.0302
  15   2.0000      -0.360529        -9.8105
  16   2.0000      -0.342749        -9.3267
  17   2.0000      -0.312472        -8.5028
  18   2.0000      -0.311427        -8.4744
  19   2.0000      -0.269203        -7.3254
  20   2.0000      -0.221408        -6.0248
  21   0.0000       0.079680         2.1682
  22   0.0000       0.100028         2.7219
  23   0.0000       0.132444         3.6040
  24   0.0000       0.134412         3.6575
  25   0.0000       0.146275         3.9803

MULLIKEN ATOMIC CHARGES
-----------------------
   0 C :   -0.514702
   1 C :    0.036572
   2 C :   -0.514369
   3 O :   -0.313763
   4 C :   -0.310415
   5 H :    0.164099
   6 H :    0.165810
   7 H :    0.165115
   8 H :    0.156848
   9 H :    0.165793
  10 H :    0.165032
  11 H :    0.164041
  12 H :    0.154809
  13 H :    0.160210
  14 H :    0.154918
Sum of atomic charges:   -0.0000000

LOEWDIN ATOMIC CHARGES
----------------------
   0 C :   -0.405492
   1 C :    0.040869
   2 C :   -0.405483
   3 O :   -0.827385
   4 C :   -0.073219
   5 H :    0.162623
   6 H :    0.160209
   7 H :    0.166066
   8 H :    0.186138
   9 H :    0.160212
  10 H :    0.166060
  11 H :    0.162577
  12 H :    0.163414
  13 H :    0.179942
  14 H :    0.163470

  Mayer bond orders larger than 0.100000
B(  0-C ,  1-C ) :   0.9275 B(  0-C ,  5-H ) :   0.9665 B(  0-C ,  6-H ) :   0.9695
B(  0-C ,  7-H ) :   0.9601 B(  1-C ,  2-C ) :   0.9278 B(  1-C ,  3-O ) :   0.9025
B(  1-C ,  8-H ) :   0.9548 B(  2-C ,  9-H ) :   0.9694 B(  2-C , 10-H ) :   0.9602
B(  2-C , 11-H ) :   0.9664 B(  3-O ,  4-C ) :   0.8898 B(  4-C , 12-H ) :   0.9570
B(  4-C , 13-H ) :   0.9673 B(  4-C , 14-H ) :   0.9570

Dispersion correction           -0.003240771
FINAL SINGLE POINT ENERGY      -233.587075296384

DIPOLE MOMENT
-------------

Method             : SCF
Type of density    : Electron Density
Multiplicity       :   1
Irrep              :   0
Energy             :  -233.5938435061194127 Eh
Relativity type    :
Basis              : AO
                                X                 Y                 Z
Electronic contribution:     -1.650318027       0.689768645       2.492019653
Nuclear contribution   :      2.031886789      -0.860970975      -3.156375789
                        -----------------------------------------
Total Dipole Moment    :      0.381568762      -0.171202330      -0.664356136
                        -----------------------------------------
Magnitude (a.u.)       :      0.785031231
Magnitude (Debye)      :      1.995390812

Rotational constants in cm-1:             0.216105             0.138287             0.108473
Rotational constants in MHz :          6478.657708          4145.729099          3251.940184

                             ****ORCA TERMINATED NORMALLY****
TOTAL RUN TIME: 0 days 0 hours 0 minutes 18 seconds 671 msec
