                         Program Version 6.0.0  -   RELEASE  -
|  1> ! r2scan-3c def2/J RI DEFGRID2 scfconv6 printgap
|  2> %output
|  3>     printlevel normal
|  4> end
|  5> * xyz 0 1
|  6> C -2.8188109565 -0.2564624627 -0.3630099095
|  7> O -1.4004234026 -0.5092039295 -0.4203630942
|  8> C -0.6131362152 0.3392892986 0.1621552123
|  9> O -0.9045269195 1.3404190537 0.7592770328
| 10> C 0.8770103557 -0.0937692628 0.0050628814
| 11> F 1.6048262337 0.8843615942 -0.5487524158
| 12> F 1.4236566108 -0.3645155413 1.1983038686
| 13> F 1.0298168656 -1.180467711 -0.7549649866
| 14> H -3.2719961152 -1.0422206303 -0.9585588678
| 15> H -3.0336218336 0.7294731358 -0.7729444434
| 16> H -3.1559592079 -0.2991576708 0.671789501
| 17> *
| 18>
| 19>                          ****END OF INPUT****

CARTESIAN COORDINATES (ANGSTROEM)
---------------------------------
  C     -2.818811   -0.256462   -0.363010
  O     -1.400423   -0.509204   -0.420363
  C     -0.613136    0.339289    0.162155
  O     -0.904527    1.340419    0.759277
  C      0.877010   -0.093769    0.005063
  F      1.604826    0.884362   -0.548752
  F      1.423657   -0.364516    1.198304
  F      1.029817   -1.180468   -0.754965
  H     -3.271996   -1.042221   -0.958559
  H     -3.033622    0.729473   -0.772944
  H     -3.155959   -0.299158    0.671790

 Total Charge           Charge          ....    0
 Multiplicity           Mult            ....    1
 Number of Electrons    NEL             ....   64
 Basis Dimension        Dim             ....  192

ORBITAL ENERGIES
----------------

  NO   OCC          E(Eh)            E(eV)
   0   2.0000     -24.529359      -667.4778
   1   2.0000     -24.528984      -667.4676
   2   2.0000     -24.528952      -667.4667
   3   2.0000     -19.042961      -518.1853
   4   2.0000     -18.971481      -516.2402
   5   2.0000     -10.299198      -280.2554
   6   2.0000     -10.197459      -277.4870
   7   2.0000     -10.117390      -275.3082
   8   2.0000      -1.289563       -35.0908
   9   2.0000      -1.199366       -32.6364
  10   2.0000      -1.198063       -32.6010
  11   2.0000      -1.120377       -30.4870
  12   2.0000      -1.024286       -27.8723
  13   2.0000      -0.760313       -20.6892
  14   2.0000      -0.691241       -18.8096
  15   2.0000      -0.604843       -16.4586
  16   2.0000      -0.569758       -15.5039
  17   2.0000      -0.569000       -15.4833
  18   2.0000      -0.551758       -15.0141
  19   2.0000      -0.487004       -13.2520
  20   2.0000      -0.475246       -12.9321
  21   2.0000      -0.448695       -12.2096
  22   2.0000      -0.438920       -11.9436
  23   2.0000      -0.435860       -11.8603
  24   2.0000      -0.409774       -11.1505
  25   2.0000      -0.399659       -10.8753
  26   2.0000      -0.392022       -10.6675
  27   2.0000      -0.386364       -10.5135
  28   2.0000      -0.377091       -10.2612
  29   2.0000      -0.354332        -9.6419
  30   2.0000      -0.313240        -8.5237
  31   2.0000      -0.277512        -7.5515
  32   0.0000      -0.065373        -1.7789
  33   0.0000       0.034686         0.9439
  34   0.0000       0.073358         1.9962
  35   0.0000       0.107902         2.9362
  36   0.0000       0.126846         3.4517

MULLIKEN ATOMIC CHARGES
-----------------------
   0 C :   -0.264948
   1 O :   -0.165371
   2 C :    0.356081
   3 O :   -0.382111
   4 C :    0.533935
   5 F :   -0.193093
   6 F :   -0.194607
   7 F :   -0.193046
   8 H :    0.164173
   9 H :    0.170539
  10 H :    0.168449
Sum of atomic charges:   -0.0000000

LOEWDIN ATOMIC CHARGES
----------------------
   0 C :   -0.023904
   1 O :   -0.551543
   2 C :    0.364171
   3 O :   -0.353384
   4 C :    0.564140
   5 F :   -0.184566
   6 F :   -0.186925
   7 F :   -0.177235
   8 H :    0.184087
   9 H :    0.183158
  10 H :    0.182003

  Mayer bond orders larger than 0.100000
B(  0-C ,  1-O ) :   0.8241 B(  0-C ,  8-H ) :   0.9667 B(  0-C ,  9-H ) :   0.9576
B(  0-C , 10-H ) :   0.9565 B(  1-O ,  2-C ) :   1.1401 B(  2-C ,  3-O ) :   1.8327
B(  2-C ,  4-C ) :   0.9765 B(  4-C ,  5-F ) :   1.0272 B(  4-C ,  6-F ) :   1.0208
B(  4-C ,  7-F ) :   1.0485

Dispersion correction           -0.002397812
FINAL SINGLE POINT ENERGY      -566.064437286669

DIPOLE MOMENT
-------------

Method             : SCF
Type of density    : Electron Density
Multiplicity       :   1
Irrep              :   0
Energy             :  -566.0749820653040842 Eh
Relativity type    :
Basis              : AO
                                X                 Y                 Z
Electronic contribution:     11.440415090      -0.537020708       0.498308263
Nuclear contribution   :    -12.670867931       0.050306428      -0.891516901
                        -----------------------------------------
Total Dipole Moment    :     -1.230452841      -0.486714280      -0.393208637
                        -----------------------------------------
Magnitude (a.u.)       :      1.380405019
Magnitude (Debye)      :      3.508710717

Rotational constants in cm-1:             0.120803             0.049871             0.043656
Rotational constants in MHz :          3621.579352          1495.103850          1308.778687

                             ****ORCA TERMINATED NORMALLY****
TOTAL RUN TIME: 0 days 0 hours 0 minutes 18 seconds 219 msec
