                         Program Version 6.0.0  -   RELEASE  -
|  1> ! r2scan-3c def2/J RI DEFGRID2 scfconv6 printgap
|  2> %output
|  3>     printlevel normal
|  4> end
|  5> %cpcm
|  6>     smd true
|  7>     smdsolvent "water"
|  8> end
|  9> * xyz 0 1
| 10> C -2.8188109565 -0.2564624627 -0.3630099095
| 11> O -1.4004234026 -0.5092039295 -0.4203630942
| 12> C -0.6131362152 0.3392892986 0.1621552123
| 13> O -0.9045269195 1.3404190537 0.7592770328
| 14> C 0.8770103557 -0.0937692628 0.0050628814
| 15> F 1.6048262337 0.8843615942 -0.5487524158
| 16> F 1.4236566108 -0.3645155413 1.1983038686
| 17> F 1.0298168656 -1.180467711 -0.7549649866
| 18> H -3.2719961152 -1.0422206303 -0.9585588678
| 19> H -3.0336218336 0.7294731358 -0.7729444434
| 20> H -3.1559592079 -0.2991576708 0.671789501
| 21> *
| 22>
| 23>                          ****END OF INPUT****

CARTESIAN COORDINATES (ANGSTROEM)
---------------------------------
  C     -2.818811   -0.256462   -0.363010
  O     -1.400423   -0.509204   -0.420363
  C     -0.613136    0.339289    0.162155
  O     -0.904527    1.340419    0.759277
  C      0.877010   -0.093769    0.005063
  F      1.604826    0.884362   -0.548752
  F      1.423657   -0.364516    1.198304
  F      1.029817   -1.180468   -0.754965
  H     -3.271996   -1.042221   -0.958559
  H     -3.033622    0.729473   -0.772944
  H     -3.155959   -0.299158    0.671790

 Total Charge           Charge          ....    0
 Multiplicity           Mult            ....    1
 Number of Electrons    NEL             ....   64
 Basis Dimension        Dim             ....  192

ORBITAL ENERGIES
----------------

  NO   OCC          E(Eh)            E(eV)
   0   2.0000     -24.535520      -667.6454
   1   2.0000     -24.535494      -667.6447
   2   2.0000     -24.534311      -667.6126
   3   2.0000     -19.034736      -517.9615
   4   2.0000     -18.974705      -516.3280
   5   2.0000     -10.302507      -280.3455
   6   2.0000     -10.198432      -277.5134
   7   2.0000     -10.089297      -274.5437
   8   2.0000      -1.294963       -35.2377
   9   2.0000      -1.204770       -32.7835
  10   2.0000      -1.204186       -32.7676
  11   2.0000      -1.113401       -30.2972
  12   2.0000      -1.024962       -27.8906
  13   2.0000      -0.749874       -20.4051
  14   2.0000      -0.686070       -18.6689
  15   2.0000      -0.602619       -16.3981
  16   2.0000      -0.574597       -15.6356
  17   2.0000      -0.572976       -15.5915
  18   2.0000      -0.541830       -14.7439
  19   2.0000      -0.475753       -12.9459
  20   2.0000      -0.474122       -12.9015
  21   2.0000      -0.445433       -12.1208
  22   2.0000      -0.444017       -12.0823
  23   2.0000      -0.439869       -11.9694
  24   2.0000      -0.408270       -11.1096
  25   2.0000      -0.405596       -11.0368
  26   2.0000      -0.383867       -10.4456
  27   2.0000      -0.383449       -10.4342
  28   2.0000      -0.379880       -10.3371
  29   2.0000      -0.343614        -9.3502
  30   2.0000      -0.304972        -8.2987
  31   2.0000      -0.283044        -7.7020
  32   0.0000      -0.064049        -1.7428
  33   0.0000       0.053161         1.4466
  34   0.0000       0.085645         2.3305
  35   0.0000       0.115861         3.1527
  36   0.0000       0.126721         3.4482

MULLIKEN ATOMIC CHARGES
-----------------------
   0 C :   -0.302445
   1 O :   -0.158647
   2 C :    0.404211
   3 O :   -0.446364
   4 C :    0.525379
   5 F :   -0.197946
   6 F :   -0.198116
   7 F :   -0.198411
   8 H :    0.190657
   9 H :    0.190010
  10 H :    0.191672
Sum of atomic charges:   -0.0000000

LOEWDIN ATOMIC CHARGES
----------------------
   0 C :   -0.017163
   1 O :   -0.542129
   2 C :    0.375213
   3 O :   -0.399081
   4 C :    0.564929
   5 F :   -0.189248
   6 F :   -0.190793
   7 F :   -0.178918
   8 H :    0.195695
   9 H :    0.190752
  10 H :    0.190743

  Mayer bond orders larger than 0.100000
B(  0-C ,  1-O ) :   0.8036 B(  0-C ,  8-H ) :   0.9561 B(  0-C ,  9-H ) :   0.9501
B(  0-C , 10-H ) :   0.9484 B(  1-O ,  2-C ) :   1.1818 B(  2-C ,  3-O ) :   1.7868
B(  2-C ,  4-C ) :   0.9798 B(  4-C ,  5-F ) :   1.0234 B(  4-C ,  6-F ) :   1.0185
B(  4-C ,  7-F ) :   1.0489

Dispersion correction           -0.002397812
FINAL SINGLE POINT ENERGY      -566.066244842802

DIPOLE MOMENT
-------------

Method             : SCF
Type of density    : Electron Density
Multiplicity       :   1
Irrep              :   0
Energy             :  -566.0767896214367738 Eh
Relativity type    :
Basis              : AO
                                X                 Y                 Z
Electronic contribution:     11.173776616      -0.738902849       0.355491058
Nuclear contribution   :    -12.670867931       0.050306428      -0.891516901
                        -----------------------------------------
Total Dipole Moment    :     -1.497091315      -0.688596420      -0.536025842
                        -----------------------------------------
Magnitude (a.u.)       :      1.732850582
Magnitude (Debye)      :      4.404556144

Rotational constants in cm-1:             0.120803             0.049871             0.043656
Rotational constants in MHz :          3621.579352          1495.103850          1308.778687

                             ****ORCA TERMINATED NORMALLY****
TOTAL RUN TIME: 0 days 0 hours 0 minutes 21 seconds 900 msec
