                         Program Version 6.0.0  -   RELEASE  -
|  1> ! pbe def2-sv(p) def2/J RI DEFGRID1 loosescf d4 GCP(DFT/SV(P)) printgap
|  2> %output
|  3>     printlevel normal
|  4> end
|  5> * xyz 0 1
|  6> C -2.2528390063 -1.1441537913 0.0918249582
|  7> C -0.8641694866 -0.5649264188 0.3983332474
|  8> H -0.828316974 -0.2815459458 1.460183315
|  9> C -0.5597068533 0.6723120684 -0.45251305
| 10> H -0.5139476863 0.3578919361 -1.507879331
| 11> C 0.8112291225 1.2611851216 -0.0582288353
| 12> H 0.6572108607 1.9978176834 0.7382050389
| 13> C 1.7434804541 0.1687936419 0.5043605208
| 14> H 2.7730757532 0.4304894304 0.2215483604
| 15> C 1.3937907014 -1.1761560479 -0.153406393
| 16> H 2.0407799208 -1.9772293093 0.2369511855
| 17> O 0.0869864758 -1.5958917665 0.1478712467
| 18> O 1.5892378521 -1.0164811066 -1.5279927744
| 19> O 1.5941296707 0.1289578286 1.8978401615
| 20> O 1.3990498751 1.9527566528 -1.1289420703
| 21> O -1.5994109364 1.603363368 -0.2750881523
| 22> O -3.285234416 -0.4278188413 0.712294132
| 23> H -2.2934182773 -2.1618286538 0.4860200053
| 24> H -2.4004766729 -1.1806359038 -0.9962453936
| 25> H 1.4381639561 -1.8584177727 -1.9847737289
| 26> H 2.2486927287 -0.4667190625 2.2906942001
| 27> H 1.632864333 1.3147890865 -1.8216844364
| 28> H -1.3872728405 2.4108552519 -0.7657909585
| 29> H -3.1894349741 0.5078622454 0.4681467291
| 30> *
| 31>
| 32>                          ****END OF INPUT****

CARTESIAN COORDINATES (ANGSTROEM)
---------------------------------
  C     -2.252839   -1.144154    0.091825
  C     -0.864169   -0.564926    0.398333
  H     -0.828317   -0.281546    1.460183
  C     -0.559707    0.672312   -0.452513
  H     -0.513948    0.357892   -1.507879
  C      0.811229    1.261185   -0.058229
  H      0.657211    1.997818    0.738205
  C      1.743480    0.168794    0.504361
  H      2.773076    0.430489    0.221548
  C      1.393791   -1.176156   -0.153406
  H      2.040780   -1.977229    0.236951
  O      0.086986   -1.595892    0.147871
  O      1.589238   -1.016481   -1.527993
  O      1.594130    0.128958    1.897840
  O      1.399050    1.952757   -1.128942
  O     -1.599411    1.603363   -0.275088
  O     -3.285234   -0.427819    0.712294
  H     -2.293418   -2.161829    0.486020
  H     -2.400477   -1.180636   -0.996245
  H      1.438164   -1.858418   -1.984774
  H      2.248693   -0.466719    2.290694
  H      1.632864    1.314789   -1.821684
  H     -1.387273    2.410855   -0.765791
  H     -3.189435    0.507862    0.468147

 Total Charge           Charge          ....    0
 Multiplicity           Mult            ....    1
 Number of Electrons    NEL             ....   96
 Basis Dimension        Dim             ....  192

ORBITAL ENERGIES
----------------

  NO   OCC          E(Eh)            E(eV)
   0   2.0000     -18.782056      -511.0857
   1   2.0000     -18.771470      -510.7977
   2   2.0000     -18.767011      -510.6763
   3   2.0000     -18.766896      -510.6732
   4   2.0000     -18.751023      -510.2413
   5   2.0000     -18.724407      -509.5170
   6   2.0000      -9.995627      -271.9948
   7   2.0000      -9.951254      -270.7874
   8   2.0000      -9.942767      -270.5565
   9   2.0000      -9.942556      -270.5507
  10   2.0000      -9.934907      -270.3426
  11   2.0000      -9.918259      -269.8895
  12   2.0000      -0.989998       -26.9392
  13   2.0000      -0.948602       -25.8128
  14   2.0000      -0.942298       -25.6412
  15   2.0000      -0.928429       -25.2638
  16   2.0000      -0.919832       -25.0299
  17   2.0000      -0.901312       -24.5260
  18   2.0000      -0.704295       -19.1648
  19   2.0000      -0.693185       -18.8625
  20   2.0000      -0.613240       -16.6871
  21   2.0000      -0.595656       -16.2086
  22   2.0000      -0.561994       -15.2926
  23   2.0000      -0.529075       -14.3969
  24   2.0000      -0.508703       -13.8425
  25   2.0000      -0.488586       -13.2951
  26   2.0000      -0.478274       -13.0145
  27   2.0000      -0.457670       -12.4538
  28   2.0000      -0.451980       -12.2990
  29   2.0000      -0.429937       -11.6992
  30   2.0000      -0.422496       -11.4967
  31   2.0000      -0.396828       -10.7982
  32   2.0000      -0.383774       -10.4430
  33   2.0000      -0.367512       -10.0005
  34   2.0000      -0.360085        -9.7984
  35   2.0000      -0.352066        -9.5802
  36   2.0000      -0.344549        -9.3756
  37   2.0000      -0.318832        -8.6758
  38   2.0000      -0.306784        -8.3480
  39   2.0000      -0.302496        -8.2313
  40   2.0000      -0.280274        -7.6267
  41   2.0000      -0.266084        -7.2405
  42   2.0000      -0.257363        -7.0032
  43   2.0000      -0.245560        -6.6820
  44   2.0000      -0.231579        -6.3016
  45   2.0000      -0.222881        -6.0649
  46   2.0000      -0.213189        -5.8012
  47   2.0000      -0.199106        -5.4179
  48   0.0000       0.006260         0.1703
  49   0.0000       0.013827         0.3763
  50   0.0000       0.024438         0.6650
  51   0.0000       0.059778         1.6266
  52   0.0000       0.064997         1.7687

MULLIKEN ATOMIC CHARGES
-----------------------
   0 C :    0.106956
   1 C :   -0.006998
   2 H :    0.080276
   3 C :    0.074880
   4 H :    0.038807
   5 C :    0.085027
   6 H :    0.077358
   7 C :    0.008876
   8 H :    0.074594
   9 C :    0.156684
  10 H :    0.053923
  11 O :   -0.308877
  12 O :   -0.401156
  13 O :   -0.403772
  14 O :   -0.433154
  15 O :   -0.428828
  16 O :   -0.448436
  17 H :    0.085469
  18 H :    0.051118
  19 H :    0.310628
  20 H :    0.305977
  21 H :    0.304700
  22 H :    0.315235
  23 H :    0.300712
Sum of atomic charges:    0.0000000

LOEWDIN ATOMIC CHARGES
----------------------
   0 C :   -0.119984
   1 C :   -0.068445
   2 H :    0.114751
   3 C :   -0.080099
   4 H :    0.099090
   5 C :   -0.069728
   6 H :    0.125787
   7 C :   -0.087784
   8 H :    0.109475
   9 C :   -0.011199
  10 H :    0.091910
  11 O :   -0.142900
  12 O :   -0.315840
  13 O :   -0.303798
  14 O :   -0.317673
  15 O :   -0.314140
  16 O :   -0.342756
  17 H :    0.114202
  18 H :    0.091365
  19 H :    0.291087
  20 H :    0.290874
  21 H :    0.278929
  22 H :    0.294445
  23 H :    0.272433

  Mayer bond orders larger than 0.100000
B(  0-C ,  1-C ) :   1.0245 B(  0-C , 16-O ) :   1.0899 B(  0-C , 17-H ) :   0.9207
B(  0-C , 18-H ) :   0.9038 B(  1-C ,  2-H ) :   0.8753 B(  1-C ,  3-C ) :   1.0772
B(  1-C , 11-O ) :   0.9632 B(  3-C ,  4-H ) :   0.8347 B(  3-C ,  5-C ) :   1.0389
B(  3-C , 15-O ) :   1.0269 B(  5-C ,  6-H ) :   0.8527 B(  5-C ,  7-C ) :   0.9998
B(  5-C , 14-O ) :   1.0356 B(  7-C ,  8-H ) :   0.8842 B(  7-C ,  9-C ) :   1.0228
B(  7-C , 13-O ) :   1.0452 B(  9-C , 10-H ) :   0.8958 B(  9-C , 11-O ) :   1.0915
B(  9-C , 12-O ) :   1.1058 B( 12-O , 19-H ) :   0.8357 B( 13-O , 20-H ) :   0.8441
B( 14-O , 21-H ) :   0.8354 B( 15-O , 22-H ) :   0.8363 B( 16-O , 23-H ) :   0.8229

Dispersion correction           -0.024903532
FINAL SINGLE POINT ENERGY      -685.695261347843

DIPOLE MOMENT
-------------

Method             : SCF
Type of density    : Electron Density
Multiplicity       :   1
Irrep              :   0
Energy             :  -685.8270234859622860 Eh
Relativity type    :
Basis              : AO
                                X                 Y                 Z
Electronic contribution:      1.176320820       0.439599936       0.342756068
Nuclear contribution   :      0.163730654      -0.841057992      -1.104576068
                        -----------------------------------------
Total Dipole Moment    :      1.340051474      -0.401458057      -0.761820000
                        -----------------------------------------
Magnitude (a.u.)       :      1.592882995
Magnitude (Debye)      :      4.048786812

Rotational constants in cm-1:             0.042773             0.025377             0.021769
Rotational constants in MHz :          1282.289787           760.777604           652.621178

                             ****ORCA TERMINATED NORMALLY****
TOTAL RUN TIME: 0 days 0 hours 0 minutes 12 seconds 460 msec
