                         Program Version 6.0.0  -   RELEASE  -
|  1> ! r2scan-3c def2/J RI DEFGRID2 scfconv6 printgap
|  2> %output
|  3>     printlevel normal
|  4> end
|  5> * xyz 0 1
|  6> C 0.7328011877 -1.1978351175 0.2318539296
|  7> C -0.7329913785 -1.1979278531 -0.2317662154
|  8> N -1.4477350185 6.4755e-06 0.1920733942
|  9> C -0.7329989629 1.1981009864 -0.231317087
| 10> C 0.7331832586 1.1978151985 0.231446105
| 11> N 1.4477732542 -0.0002418853 -0.1923297532
| 12> H 1.2578834212 -2.0715274802 -0.1572242646
| 13> H 0.7706331024 -1.2285810347 1.3262665063
| 14> H -0.7709330953 -1.2292913181 -1.3260938326
| 15> H -1.2581564561 -2.0714174424 0.1579439341
| 16> H -1.5129529461 -0.0003138067 1.2067867999
| 17> H -0.7718040373 1.2303994359 -1.3255994348
| 18> H -1.2577191644 2.0714409669 0.1594342496
| 19> H 1.2579577434 2.0710403874 -0.1592027249
| 20> H 0.7719980325 1.2299203934 1.325779438
| 21> H 1.5126322934 -0.0002244661 -1.2071108398
| 22> *
| 23>
| 24>                          ****END OF INPUT****

CARTESIAN COORDINATES (ANGSTROEM)
---------------------------------
  C      0.732801   -1.197835    0.231854
  C     -0.732991   -1.197928   -0.231766
  N     -1.447735    0.000006    0.192073
  C     -0.732999    1.198101   -0.231317
  C      0.733183    1.197815    0.231446
  N      1.447773   -0.000242   -0.192330
  H      1.257883   -2.071527   -0.157224
  H      0.770633   -1.228581    1.326267
  H     -0.770933   -1.229291   -1.326094
  H     -1.258156   -2.071417    0.157944
  H     -1.512953   -0.000314    1.206787
  H     -0.771804    1.230399   -1.325599
  H     -1.257719    2.071441    0.159434
  H      1.257958    2.071040   -0.159203
  H      0.771998    1.229920    1.325779
  H      1.512632   -0.000224   -1.207111

 Total Charge           Charge          ....    0
 Multiplicity           Mult            ....    1
 Number of Electrons    NEL             ....   48
 Basis Dimension        Dim             ....  174

ORBITAL ENERGIES
----------------

  NO   OCC          E(Eh)            E(eV)
   0   2.0000     -14.141929      -384.8215
   1   2.0000     -14.141912      -384.8210
   2   2.0000     -10.048065      -273.4217
   3   2.0000     -10.048053      -273.4214
   4   2.0000     -10.047943      -273.4184
   5   2.0000     -10.047931      -273.4181
   6   2.0000      -0.898108       -24.4388
   7   2.0000      -0.842329       -22.9209
   8   2.0000      -0.721686       -19.6381
   9   2.0000      -0.625253       -17.0140
  10   2.0000      -0.601025       -16.3547
  11   2.0000      -0.558510       -15.1978
  12   2.0000      -0.474096       -12.9008
  13   2.0000      -0.424436       -11.5495
  14   2.0000      -0.423299       -11.5186
  15   2.0000      -0.416221       -11.3260
  16   2.0000      -0.396236       -10.7821
  17   2.0000      -0.359207        -9.7745
  18   2.0000      -0.351431        -9.5629
  19   2.0000      -0.321227        -8.7410
  20   2.0000      -0.309711        -8.4277
  21   2.0000      -0.306189        -8.3318
  22   2.0000      -0.230139        -6.2624
  23   2.0000      -0.164446        -4.4748
  24   0.0000       0.076896         2.0924
  25   0.0000       0.081236         2.2105
  26   0.0000       0.108255         2.9458
  27   0.0000       0.113452         3.0872
  28   0.0000       0.120413         3.2766

MULLIKEN ATOMIC CHARGES
-----------------------
   0 C :   -0.253568
   1 C :   -0.253537
   2 N :   -0.331214
   3 C :   -0.253679
   4 C :   -0.253596
   5 N :   -0.331269
   6 H :    0.146276
   7 H :    0.155090
   8 H :    0.155071
   9 H :    0.146276
  10 H :    0.235710
  11 H :    0.155100
  12 H :    0.146258
  13 H :    0.146256
  14 H :    0.155100
  15 H :    0.235725
Sum of atomic charges:   -0.0000000

LOEWDIN ATOMIC CHARGES
----------------------
   0 C :   -0.060829
   1 C :   -0.060828
   2 N :   -0.821404
   3 C :   -0.060863
   4 C :   -0.060868
   5 N :   -0.821368
   6 H :    0.174627
   7 H :    0.174480
   8 H :    0.174452
   9 H :    0.174651
  10 H :    0.244861
  11 H :    0.174445
  12 H :    0.174664
  13 H :    0.174647
  14 H :    0.174445
  15 H :    0.244886

  Mayer bond orders larger than 0.100000
B(  0-C ,  1-C ) :   0.8234 B(  0-C ,  5-N ) :   0.9449 B(  0-C ,  6-H ) :   0.9731
B(  0-C ,  7-H ) :   0.9937 B(  1-C ,  2-N ) :   0.9450 B(  1-C ,  8-H ) :   0.9937
B(  1-C ,  9-H ) :   0.9732 B(  2-N ,  3-C ) :   0.9450 B(  2-N , 10-H ) :   0.9006
B(  3-C ,  4-C ) :   0.8235 B(  3-C , 11-H ) :   0.9936 B(  3-C , 12-H ) :   0.9732
B(  4-C ,  5-N ) :   0.9450 B(  4-C , 13-H ) :   0.9732 B(  4-C , 14-H ) :   0.9936
B(  5-N , 15-H ) :   0.9005

Dispersion correction           -0.004222928
FINAL SINGLE POINT ENERGY      -267.843172905007

DIPOLE MOMENT
-------------

Method             : SCF
Type of density    : Electron Density
Multiplicity       :   1
Irrep              :   0
Energy             :  -267.8548974594885408 Eh
Relativity type    :
Basis              : AO
                                X                 Y                 Z
Electronic contribution:      0.000302253      -0.001347466      -0.000810123
Nuclear contribution   :     -0.000432385       0.001354957       0.000917841
                        -----------------------------------------
Total Dipole Moment    :     -0.000130132       0.000007491       0.000107718
                        -----------------------------------------
Magnitude (a.u.)       :      0.000169096
Magnitude (Debye)      :      0.000429808

Rotational constants in cm-1:             0.158919             0.150971             0.088602
Rotational constants in MHz :          4764.266765          4525.997897          2656.234838

                             ****ORCA TERMINATED NORMALLY****
TOTAL RUN TIME: 0 days 0 hours 0 minutes 11 seconds 905 msec
