                         Program Version 6.0.0  -   RELEASE  -
|  1> ! r2scan-3c def2/J RI DEFGRID2 scfconv6 printgap
|  2> %output
|  3>     printlevel normal
|  4> end
|  5> %cpcm
|  6>     smd true
|  7>     smdsolvent "water"
|  8> end
|  9> * xyz 0 1
| 10> C 0.7328011877 -1.1978351175 0.2318539296
| 11> C -0.7329913785 -1.1979278531 -0.2317662154
| 12> N -1.4477350185 6.4755e-06 0.1920733942
| 13> C -0.7329989629 1.1981009864 -0.231317087
| 14> C 0.7331832586 1.1978151985 0.231446105
| 15> N 1.4477732542 -0.0002418853 -0.1923297532
| 16> H 1.2578834212 -2.0715274802 -0.1572242646
| 17> H 0.7706331024 -1.2285810347 1.3262665063
| 18> H -0.7709330953 -1.2292913181 -1.3260938326
| 19> H -1.2581564561 -2.0714174424 0.1579439341
| 20> H -1.5129529461 -0.0003138067 1.2067867999
| 21> H -0.7718040373 1.2303994359 -1.3255994348
| 22> H -1.2577191644 2.0714409669 0.1594342496
| 23> H 1.2579577434 2.0710403874 -0.1592027249
| 24> H 0.7719980325 1.2299203934 1.325779438
| 25> H 1.5126322934 -0.0002244661 -1.2071108398
| 26> *
| 27>
| 28>                          ****END OF INPUT****

CARTESIAN COORDINATES (ANGSTROEM)
---------------------------------
  C      0.732801   -1.197835    0.231854
  C     -0.732991   -1.197928   -0.231766
  N     -1.447735    0.000006    0.192073
  C     -0.732999    1.198101   -0.231317
  C      0.733183    1.197815    0.231446
  N      1.447773   -0.000242   -0.192330
  H      1.257883   -2.071527   -0.157224
  H      0.770633   -1.228581    1.326267
  H     -0.770933   -1.229291   -1.326094
  H     -1.258156   -2.071417    0.157944
  H     -1.512953   -0.000314    1.206787
  H     -0.771804    1.230399   -1.325599
  H     -1.257719    2.071441    0.159434
  H      1.257958    2.071040   -0.159203
  H      0.771998    1.229920    1.325779
  H      1.512632   -0.000224   -1.207111

 Total Charge           Charge          ....    0
 Multiplicity           Mult            ....    1
 Number of Electrons    NEL             ....   48
 Basis Dimension        Dim             ....  174

ORBITAL ENERGIES
----------------

  NO   OCC          E(Eh)            E(eV)
   0   2.0000     -14.135847      -384.6560
   1   2.0000     -14.135831      -384.6555
   2   2.0000     -10.038342      -273.1572
   3   2.0000     -10.038329      -273.1568
   4   2.0000     -10.038221      -273.1539
   5   2.0000     -10.038208      -273.1535
   6   2.0000      -0.890193       -24.2234
   7   2.0000      -0.835362       -22.7314
   8   2.0000      -0.712139       -19.3783
   9   2.0000      -0.615942       -16.7606
  10   2.0000      -0.592945       -16.1348
  11   2.0000      -0.548556       -14.9270
  12   2.0000      -0.464806       -12.6480
  13   2.0000      -0.414723       -11.2852
  14   2.0000      -0.412566       -11.2265
  15   2.0000      -0.409921       -11.1545
  16   2.0000      -0.388738       -10.5781
  17   2.0000      -0.349377        -9.5070
  18   2.0000      -0.341770        -9.3000
  19   2.0000      -0.311023        -8.4634
  20   2.0000      -0.298229        -8.1152
  21   2.0000      -0.297004        -8.0819
  22   2.0000      -0.230095        -6.2612
  23   2.0000      -0.162036        -4.4092
  24   0.0000       0.086878         2.3641
  25   0.0000       0.100935         2.7466
  26   0.0000       0.113397         3.0857
  27   0.0000       0.124724         3.3939
  28   0.0000       0.133480         3.6322

MULLIKEN ATOMIC CHARGES
-----------------------
   0 C :   -0.255378
   1 C :   -0.255303
   2 N :   -0.411157
   3 C :   -0.255479
   4 C :   -0.255373
   5 N :   -0.411204
   6 H :    0.155123
   7 H :    0.165281
   8 H :    0.165248
   9 H :    0.155140
  10 H :    0.281156
  11 H :    0.165260
  12 H :    0.155132
  13 H :    0.155114
  14 H :    0.165266
  15 H :    0.281175
Sum of atomic charges:   -0.0000000

LOEWDIN ATOMIC CHARGES
----------------------
   0 C :   -0.062127
   1 C :   -0.062125
   2 N :   -0.844862
   3 C :   -0.062156
   4 C :   -0.062163
   5 N :   -0.844826
   6 H :    0.178557
   7 H :    0.178394
   8 H :    0.178361
   9 H :    0.178589
  10 H :    0.255225
  11 H :    0.178346
  12 H :    0.178605
  13 H :    0.178583
  14 H :    0.178348
  15 H :    0.255253

  Mayer bond orders larger than 0.100000
B(  0-C ,  1-C ) :   0.8418 B(  0-C ,  5-N ) :   0.9573 B(  0-C ,  6-H ) :   0.9644
B(  0-C ,  7-H ) :   0.9873 B(  1-C ,  2-N ) :   0.9573 B(  1-C ,  8-H ) :   0.9873
B(  1-C ,  9-H ) :   0.9644 B(  2-N ,  3-C ) :   0.9573 B(  2-N , 10-H ) :   0.8861
B(  3-C ,  4-C ) :   0.8419 B(  3-C , 11-H ) :   0.9873 B(  3-C , 12-H ) :   0.9644
B(  4-C ,  5-N ) :   0.9574 B(  4-C , 13-H ) :   0.9644 B(  4-C , 14-H ) :   0.9873
B(  5-N , 15-H ) :   0.8861

Dispersion correction           -0.004222928
FINAL SINGLE POINT ENERGY      -267.860291200370

DIPOLE MOMENT
-------------

Method             : SCF
Type of density    : Electron Density
Multiplicity       :   1
Irrep              :   0
Energy             :  -267.8720157548511338 Eh
Relativity type    :
Basis              : AO
                                X                 Y                 Z
Electronic contribution:      0.000260875      -0.001323005      -0.000751929
Nuclear contribution   :     -0.000432385       0.001354957       0.000917841
                        -----------------------------------------
Total Dipole Moment    :     -0.000171510       0.000031952       0.000165912
                        -----------------------------------------
Magnitude (a.u.)       :      0.000240756
Magnitude (Debye)      :      0.000611952

Rotational constants in cm-1:             0.158919             0.150971             0.088602
Rotational constants in MHz :          4764.266765          4525.997897          2656.234838

                             ****ORCA TERMINATED NORMALLY****
TOTAL RUN TIME: 0 days 0 hours 0 minutes 16 seconds 346 msec
