                         Program Version 6.0.0  -   RELEASE  -
|  1> ! r2scan-3c def2/J RI DEFGRID2 scfconv6 printgap
|  2> %output
|  3>     printlevel normal
|  4> end
|  5> * xyz 0 1
|  6> C -3.4476667104 0.6023429872 -0.0036131848
|  7> C -1.9532312629 0.5123443928 -0.0116061651
|  8> C -1.1676917292 1.4168280578 -0.5769230992
|  9> C 0.3255405497 1.3451220861 -0.6331535487
| 10> C 0.8628859791 -0.0409110514 -0.2548712475
| 11> H 0.6047838394 -0.7347533164 -1.0667186625
| 12> C 0.1080051104 -0.5148992971 0.9890604423
| 13> C -1.3733054511 -0.7136159813 0.6526377501
| 14> H -1.9309856729 -0.9031944192 1.5860404074
| 15> O -1.57543438 -1.8119575471 -0.230175917
| 16> C 2.3731302753 -0.0399495699 -0.1082621177
| 17> C 3.1564838315 0.6347358279 -0.9375335492
| 18> C 2.9775194101 -0.8685897983 0.987056632
| 19> H -3.8661997419 -0.3030149911 -0.4409532383
| 20> H -3.7885592869 1.4633579544 -0.5712231565
| 21> H -3.8163544912 0.6827503388 1.0186109849
| 22> H -1.6067699682 2.2921691957 -1.0375932941
| 23> H 0.6416165702 1.6125859355 -1.6427056067
| 24> H 0.7462658595 2.0946559752 0.0460384917
| 25> H 0.5081335493 -1.4597348299 1.3562435571
| 26> H 0.187730643 0.2307075224 1.7818889449
| 27> H -1.2608718862 -2.6203032232 0.1960816427
| 28> H 4.2288146637 0.6125282475 -0.838179131
| 29> H 2.7784436722 1.2292755816 -1.7498734624
| 30> H 2.6952159953 -1.9140655445 0.8750467339
| 31> H 4.0617076826 -0.8012706757 0.9531736121
| 32> H 2.640211844 -0.525572856 1.9629771318
| 33> *
| 34>
| 35>                          ****END OF INPUT****

CARTESIAN COORDINATES (ANGSTROEM)
---------------------------------
  C     -3.447667    0.602343   -0.003613
  C     -1.953231    0.512344   -0.011606
  C     -1.167692    1.416828   -0.576923
  C      0.325541    1.345122   -0.633154
  C      0.862886   -0.040911   -0.254871
  H      0.604784   -0.734753   -1.066719
  C      0.108005   -0.514899    0.989060
  C     -1.373305   -0.713616    0.652638
  H     -1.930986   -0.903194    1.586040
  O     -1.575434   -1.811958   -0.230176
  C      2.373130   -0.039950   -0.108262
  C      3.156484    0.634736   -0.937534
  C      2.977519   -0.868590    0.987057
  H     -3.866200   -0.303015   -0.440953
  H     -3.788559    1.463358   -0.571223
  H     -3.816354    0.682750    1.018611
  H     -1.606770    2.292169   -1.037593
  H      0.641617    1.612586   -1.642706
  H      0.746266    2.094656    0.046038
  H      0.508134   -1.459735    1.356244
  H      0.187731    0.230708    1.781889
  H     -1.260872   -2.620303    0.196082
  H      4.228815    0.612528   -0.838179
  H      2.778444    1.229276   -1.749873
  H      2.695216   -1.914066    0.875047
  H      4.061708   -0.801271    0.953174
  H      2.640212   -0.525573    1.962977

 Total Charge           Charge          ....    0
 Multiplicity           Mult            ....    1
 Number of Electrons    NEL             ....   84
 Basis Dimension        Dim             ....  294

ORBITAL ENERGIES
----------------

  NO   OCC          E(Eh)            E(eV)
   0   2.0000     -18.949203      -515.6340
   1   2.0000     -10.083474      -274.3853
   2   2.0000     -10.038016      -273.1483
   3   2.0000     -10.036244      -273.1001
   4   2.0000     -10.028958      -272.9018
   5   2.0000     -10.028815      -272.8979
   6   2.0000     -10.028543      -272.8905
   7   2.0000     -10.024375      -272.7771
   8   2.0000     -10.022292      -272.7204
   9   2.0000     -10.018177      -272.6085
  10   2.0000     -10.007128      -272.3078
  11   2.0000      -0.986587       -26.8464
  12   2.0000      -0.811275       -22.0759
  13   2.0000      -0.769843       -20.9485
  14   2.0000      -0.720197       -19.5976
  15   2.0000      -0.704691       -19.1756
  16   2.0000      -0.653396       -17.7798
  17   2.0000      -0.641631       -17.4597
  18   2.0000      -0.587747       -15.9934
  19   2.0000      -0.572997       -15.5920
  20   2.0000      -0.498951       -13.5771
  21   2.0000      -0.486147       -13.2287
  22   2.0000      -0.463662       -12.6169
  23   2.0000      -0.450996       -12.2722
  24   2.0000      -0.418713       -11.3938
  25   2.0000      -0.414473       -11.2784
  26   2.0000      -0.399993       -10.8844
  27   2.0000      -0.394109       -10.7243
  28   2.0000      -0.383727       -10.4417
  29   2.0000      -0.376992       -10.2585
  30   2.0000      -0.369018       -10.0415
  31   2.0000      -0.367521       -10.0008
  32   2.0000      -0.338438        -9.2094
  33   2.0000      -0.336885        -9.1671
  34   2.0000      -0.329260        -8.9596
  35   2.0000      -0.310531        -8.4500
  36   2.0000      -0.302762        -8.2386
  37   2.0000      -0.295548        -8.0423
  38   2.0000      -0.267737        -7.2855
  39   2.0000      -0.238699        -6.4953
  40   2.0000      -0.219124        -5.9627
  41   2.0000      -0.217729        -5.9247
  42   0.0000      -0.008014        -0.2181
  43   0.0000      -0.007244        -0.1971
  44   0.0000       0.061056         1.6614
  45   0.0000       0.092418         2.5148
  46   0.0000       0.098602         2.6831

MULLIKEN ATOMIC CHARGES
-----------------------
   0 C :   -0.545773
   1 C :    0.088343
   2 C :   -0.215103
   3 C :   -0.359708
   4 C :    0.049276
   5 H :    0.219013
   6 C :   -0.426810
   7 C :    0.011905
   8 H :    0.141257
   9 O :   -0.420479
  10 C :    0.009186
  11 C :   -0.347011
  12 C :   -0.515557
  13 H :    0.174067
  14 H :    0.148720
  15 H :    0.152830
  16 H :    0.149405
  17 H :    0.146454
  18 H :    0.179665
  19 H :    0.154902
  20 H :    0.176771
  21 H :    0.284324
  22 H :    0.138167
  23 H :    0.131969
  24 H :    0.164502
  25 H :    0.148407
  26 H :    0.161280
Sum of atomic charges:    0.0000000

LOEWDIN ATOMIC CHARGES
----------------------
   0 C :   -0.386454
   1 C :   -0.095985
   2 C :   -0.176324
   3 C :   -0.267713
   4 C :   -0.192517
   5 H :    0.190580
   6 C :   -0.261366
   7 C :    0.078330
   8 H :    0.170924
   9 O :   -0.606723
  10 C :   -0.114436
  11 C :   -0.326213
  12 C :   -0.394404
  13 H :    0.169616
  14 H :    0.157719
  15 H :    0.158923
  16 H :    0.164014
  17 H :    0.165640
  18 H :    0.173074
  19 H :    0.162525
  20 H :    0.170295
  21 H :    0.267226
  22 H :    0.155565
  23 H :    0.157141
  24 H :    0.159769
  25 H :    0.158822
  26 H :    0.161970

  Mayer bond orders larger than 0.100000
B(  0-C ,  1-C ) :   0.8193 B(  0-C , 13-H ) :   0.9701 B(  0-C , 14-H ) :   0.9976
B(  0-C , 15-H ) :   0.9739 B(  1-C ,  2-C ) :   1.8671 B(  1-C ,  7-C ) :   0.9498
B(  2-C ,  3-C ) :   0.9554 B(  2-C , 16-H ) :   0.9256 B(  3-C ,  4-C ) :   0.9276
B(  3-C , 17-H ) :   0.9507 B(  3-C , 18-H ) :   0.9806 B(  4-C ,  5-H ) :   0.9718
B(  4-C ,  6-C ) :   0.8189 B(  4-C , 10-C ) :   0.8251 B(  6-C ,  7-C ) :   0.9581
B(  6-C , 19-H ) :   0.9703 B(  6-C , 20-H ) :   0.9926 B(  7-C ,  8-H ) :   0.9881
B(  7-C ,  9-O ) :   0.9596 B(  9-O , 21-H ) :   0.9019 B( 10-C , 11-C ) :   1.8691
B( 10-C , 12-C ) :   0.8596 B( 11-C , 22-H ) :   0.9673 B( 11-C , 23-H ) :   0.9848
B( 12-C , 24-H ) :   0.9858 B( 12-C , 25-H ) :   0.9794 B( 12-C , 26-H ) :   0.9681

Dispersion correction           -0.009557630
FINAL SINGLE POINT ENERGY      -465.753202853898

DIPOLE MOMENT
-------------

Method             : SCF
Type of density    : Electron Density
Multiplicity       :   1
Irrep              :   0
Energy             :  -465.7553623786534445 Eh
Relativity type    :
Basis              : AO
                                X                 Y                 Z
Electronic contribution:     -2.533657435      -1.052372456      -1.688399265
Nuclear contribution   :      2.625254334       0.870131523       2.275257238
                        -----------------------------------------
Total Dipole Moment    :      0.091596900      -0.182240933       0.586857973
                        -----------------------------------------
Magnitude (a.u.)       :      0.621292226
Magnitude (Debye)      :      1.579199338

Rotational constants in cm-1:             0.071990             0.023157             0.019357
Rotational constants in MHz :          2158.191783           694.232351           580.305277

                             ****ORCA TERMINATED NORMALLY****
TOTAL RUN TIME: 0 days 0 hours 0 minutes 43 seconds 536 msec
