                         Program Version 6.0.0  -   RELEASE  -
|  1> ! r2scan-3c def2/J RI DEFGRID2 scfconv6 printgap
|  2> %output
|  3>     printlevel normal
|  4> end
|  5> %cpcm
|  6>     smd true
|  7>     smdsolvent "water"
|  8> end
|  9> * xyz 0 1
| 10> C -3.4476667104 0.6023429872 -0.0036131848
| 11> C -1.9532312629 0.5123443928 -0.0116061651
| 12> C -1.1676917292 1.4168280578 -0.5769230992
| 13> C 0.3255405497 1.3451220861 -0.6331535487
| 14> C 0.8628859791 -0.0409110514 -0.2548712475
| 15> H 0.6047838394 -0.7347533164 -1.0667186625
| 16> C 0.1080051104 -0.5148992971 0.9890604423
| 17> C -1.3733054511 -0.7136159813 0.6526377501
| 18> H -1.9309856729 -0.9031944192 1.5860404074
| 19> O -1.57543438 -1.8119575471 -0.230175917
| 20> C 2.3731302753 -0.0399495699 -0.1082621177
| 21> C 3.1564838315 0.6347358279 -0.9375335492
| 22> C 2.9775194101 -0.8685897983 0.987056632
| 23> H -3.8661997419 -0.3030149911 -0.4409532383
| 24> H -3.7885592869 1.4633579544 -0.5712231565
| 25> H -3.8163544912 0.6827503388 1.0186109849
| 26> H -1.6067699682 2.2921691957 -1.0375932941
| 27> H 0.6416165702 1.6125859355 -1.6427056067
| 28> H 0.7462658595 2.0946559752 0.0460384917
| 29> H 0.5081335493 -1.4597348299 1.3562435571
| 30> H 0.187730643 0.2307075224 1.7818889449
| 31> H -1.2608718862 -2.6203032232 0.1960816427
| 32> H 4.2288146637 0.6125282475 -0.838179131
| 33> H 2.7784436722 1.2292755816 -1.7498734624
| 34> H 2.6952159953 -1.9140655445 0.8750467339
| 35> H 4.0617076826 -0.8012706757 0.9531736121
| 36> H 2.640211844 -0.525572856 1.9629771318
| 37> *
| 38>
| 39>                          ****END OF INPUT****

CARTESIAN COORDINATES (ANGSTROEM)
---------------------------------
  C     -3.447667    0.602343   -0.003613
  C     -1.953231    0.512344   -0.011606
  C     -1.167692    1.416828   -0.576923
  C      0.325541    1.345122   -0.633154
  C      0.862886   -0.040911   -0.254871
  H      0.604784   -0.734753   -1.066719
  C      0.108005   -0.514899    0.989060
  C     -1.373305   -0.713616    0.652638
  H     -1.930986   -0.903194    1.586040
  O     -1.575434   -1.811958   -0.230176
  C      2.373130   -0.039950   -0.108262
  C      3.156484    0.634736   -0.937534
  C      2.977519   -0.868590    0.987057
  H     -3.866200   -0.303015   -0.440953
  H     -3.788559    1.463358   -0.571223
  H     -3.816354    0.682750    1.018611
  H     -1.606770    2.292169   -1.037593
  H      0.641617    1.612586   -1.642706
  H      0.746266    2.094656    0.046038
  H      0.508134   -1.459735    1.356244
  H      0.187731    0.230708    1.781889
  H     -1.260872   -2.620303    0.196082
  H      4.228815    0.612528   -0.838179
  H      2.778444    1.229276   -1.749873
  H      2.695216   -1.914066    0.875047
  H      4.061708   -0.801271    0.953174
  H      2.640212   -0.525573    1.962977

 Total Charge           Charge          ....    0
 Multiplicity           Mult            ....    1
 Number of Electrons    NEL             ....   84
 Basis Dimension        Dim             ....  294

ORBITAL ENERGIES
----------------

  NO   OCC          E(Eh)            E(eV)
   0   2.0000     -18.949945      -515.6542
   1   2.0000     -10.077661      -274.2271
   2   2.0000     -10.038372      -273.1580
   3   2.0000     -10.032071      -272.9865
   4   2.0000     -10.027396      -272.8593
   5   2.0000     -10.023289      -272.7476
   6   2.0000     -10.020237      -272.6645
   7   2.0000     -10.017773      -272.5975
   8   2.0000     -10.014660      -272.5128
   9   2.0000     -10.014319      -272.5035
  10   2.0000     -10.003354      -272.2051
  11   2.0000      -0.986621       -26.8473
  12   2.0000      -0.807539       -21.9743
  13   2.0000      -0.767590       -20.8872
  14   2.0000      -0.716267       -19.4906
  15   2.0000      -0.698661       -19.0115
  16   2.0000      -0.647881       -17.6297
  17   2.0000      -0.638466       -17.3735
  18   2.0000      -0.583181       -15.8692
  19   2.0000      -0.567895       -15.4532
  20   2.0000      -0.494613       -13.4591
  21   2.0000      -0.482502       -13.1296
  22   2.0000      -0.459037       -12.4910
  23   2.0000      -0.446155       -12.1405
  24   2.0000      -0.413500       -11.2519
  25   2.0000      -0.410021       -11.1573
  26   2.0000      -0.395943       -10.7742
  27   2.0000      -0.389036       -10.5862
  28   2.0000      -0.376787       -10.2529
  29   2.0000      -0.372940       -10.1482
  30   2.0000      -0.364809        -9.9270
  31   2.0000      -0.361579        -9.8391
  32   2.0000      -0.335573        -9.1314
  33   2.0000      -0.331348        -9.0164
  34   2.0000      -0.324264        -8.8237
  35   2.0000      -0.305469        -8.3122
  36   2.0000      -0.300983        -8.1902
  37   2.0000      -0.291640        -7.9359
  38   2.0000      -0.262760        -7.1501
  39   2.0000      -0.239847        -6.5266
  40   2.0000      -0.219929        -5.9846
  41   2.0000      -0.218337        -5.9412
  42   0.0000      -0.008190        -0.2229
  43   0.0000      -0.006026        -0.1640
  44   0.0000       0.075112         2.0439
  45   0.0000       0.104313         2.8385
  46   0.0000       0.105655         2.8750

MULLIKEN ATOMIC CHARGES
-----------------------
   0 C :   -0.565094
   1 C :    0.028815
   2 C :   -0.249934
   3 C :   -0.370845
   4 C :    0.066747
   5 H :    0.211765
   6 C :   -0.426885
   7 C :    0.042758
   8 H :    0.162165
   9 O :   -0.503933
  10 C :   -0.031333
  11 C :   -0.428290
  12 C :   -0.542666
  13 H :    0.172073
  14 H :    0.167471
  15 H :    0.174260
  16 H :    0.173694
  17 H :    0.170955
  18 H :    0.188684
  19 H :    0.177305
  20 H :    0.190445
  21 H :    0.341289
  22 H :    0.163660
  23 H :    0.158485
  24 H :    0.186410
  25 H :    0.163448
  26 H :    0.178549
Sum of atomic charges:    0.0000000

LOEWDIN ATOMIC CHARGES
----------------------
   0 C :   -0.394335
   1 C :   -0.110802
   2 C :   -0.185832
   3 C :   -0.271528
   4 C :   -0.193964
   5 H :    0.186862
   6 C :   -0.258088
   7 C :    0.080576
   8 H :    0.181132
   9 O :   -0.640034
  10 C :   -0.114350
  11 C :   -0.355966
  12 C :   -0.400655
  13 H :    0.167691
  14 H :    0.162982
  15 H :    0.166556
  16 H :    0.171729
  17 H :    0.171836
  18 H :    0.176182
  19 H :    0.173133
  20 H :    0.175226
  21 H :    0.286906
  22 H :    0.161584
  23 H :    0.163207
  24 H :    0.168764
  25 H :    0.162251
  26 H :    0.168938

  Mayer bond orders larger than 0.100000
B(  0-C ,  1-C ) :   0.8344 B(  0-C , 13-H ) :   0.9666 B(  0-C , 14-H ) :   0.9922
B(  0-C , 15-H ) :   0.9676 B(  1-C ,  2-C ) :   1.8610 B(  1-C ,  7-C ) :   0.9248
B(  2-C ,  3-C ) :   0.9371 B(  2-C , 16-H ) :   0.9351 B(  3-C ,  4-C ) :   0.8982
B(  3-C , 17-H ) :   0.9506 B(  3-C , 18-H ) :   0.9774 B(  4-C ,  5-H ) :   0.9764
B(  4-C ,  6-C ) :   0.8116 B(  4-C , 10-C ) :   0.8055 B(  6-C ,  7-C ) :   0.9517
B(  6-C , 19-H ) :   0.9547 B(  6-C , 20-H ) :   0.9965 B(  7-C ,  8-H ) :   0.9818
B(  7-C ,  9-O ) :   0.9418 B(  9-O , 21-H ) :   0.8755 B( 10-C , 11-C ) :   1.8446
B( 10-C , 12-C ) :   0.8664 B( 11-C , 22-H ) :   0.9682 B( 11-C , 23-H ) :   0.9840
B( 12-C , 24-H ) :   0.9754 B( 12-C , 25-H ) :   0.9766 B( 12-C , 26-H ) :   0.9615

Dispersion correction           -0.009557630
FINAL SINGLE POINT ENERGY      -465.761048322466

DIPOLE MOMENT
-------------

Method             : SCF
Type of density    : Electron Density
Multiplicity       :   1
Irrep              :   0
Energy             :  -465.7632078472213948 Eh
Relativity type    :
Basis              : AO
                                X                 Y                 Z
Electronic contribution:     -2.464788419      -1.144900975      -1.302075425
Nuclear contribution   :      2.625254334       0.870131523       2.275257238
                        -----------------------------------------
Total Dipole Moment    :      0.160465916      -0.274769452       0.973181812
                        -----------------------------------------
Magnitude (a.u.)       :      1.023880072
Magnitude (Debye)      :      2.602496319

Rotational constants in cm-1:             0.071990             0.023157             0.019357
Rotational constants in MHz :          2158.191783           694.232351           580.305277

                             ****ORCA TERMINATED NORMALLY****
TOTAL RUN TIME: 0 days 0 hours 0 minutes 57 seconds 637 msec
