                         Program Version 6.0.0  -   RELEASE  -
|  1> ! r2scan-3c def2/J RI DEFGRID2 scfconv6 printgap
|  2> %output
|  3>     printlevel normal
|  4> end
|  5> * xyz 0 1
|  6> C -3.1589987537 0.0025169276 0.8413135282
|  7> C -2.4547517605 -0.0015704954 -0.5175111311
|  8> C -0.9630438543 -0.0011709784 -0.3388008438
|  9> C -0.258644276 -1.1929508764 -0.2292182587
| 10> C 1.1085765324 -1.1924506872 -0.0224104875
| 11> C 1.8131695928 7.99332e-05 0.083701227
| 12> C 1.1076967965 1.1920782163 -0.0241868025
| 13> C -0.2594190609 1.1913476628 -0.230911418
| 14> C 3.2986096146 0.0014160443 0.2833942726
| 15> H -2.8751851461 0.8847050184 1.410722432
| 16> H -2.8782620354 -0.8783929392 1.4141900977
| 17> H -4.2382189647 0.0041102195 0.710156257
| 18> H -2.7588700375 0.881733336 -1.0824542201
| 19> H -2.75913497 -0.8879527532 -1.0775080818
| 20> H -0.7872063977 -2.1325904904 -0.3083576258
| 21> H 1.637255617 -2.1317771684 0.0582033123
| 22> H 1.6359056814 2.1317935005 0.055166739
| 23> H -0.7886810582 2.1304819095 -0.3115660647
| 24> H 3.6179849931 -0.8907398634 0.8163495999
| 25> H 3.8026326468 0.0166335288 -0.6831263734
| 26> H 3.6128302562 0.8803881872 0.8409264722
| 27> *
| 28>
| 29>                          ****END OF INPUT****

CARTESIAN COORDINATES (ANGSTROEM)
---------------------------------
  C     -3.158999    0.002517    0.841314
  C     -2.454752   -0.001570   -0.517511
  C     -0.963044   -0.001171   -0.338801
  C     -0.258644   -1.192951   -0.229218
  C      1.108577   -1.192451   -0.022410
  C      1.813170    0.000080    0.083701
  C      1.107697    1.192078   -0.024187
  C     -0.259419    1.191348   -0.230911
  C      3.298610    0.001416    0.283394
  H     -2.875185    0.884705    1.410722
  H     -2.878262   -0.878393    1.414190
  H     -4.238219    0.004110    0.710156
  H     -2.758870    0.881733   -1.082454
  H     -2.759135   -0.887953   -1.077508
  H     -0.787206   -2.132590   -0.308358
  H      1.637256   -2.131777    0.058203
  H      1.635906    2.131794    0.055167
  H     -0.788681    2.130482   -0.311566
  H      3.617985   -0.890740    0.816350
  H      3.802633    0.016634   -0.683126
  H      3.612830    0.880388    0.840926

 Total Charge           Charge          ....    0
 Multiplicity           Mult            ....    1
 Number of Electrons    NEL             ....   66
 Basis Dimension        Dim             ....  231

ORBITAL ENERGIES
----------------

  NO   OCC          E(Eh)            E(eV)
   0   2.0000     -10.036577      -273.1092
   1   2.0000     -10.033214      -273.0176
   2   2.0000     -10.030682      -272.9487
   3   2.0000     -10.026597      -272.8376
   4   2.0000     -10.026562      -272.8366
   5   2.0000     -10.026061      -272.8230
   6   2.0000     -10.026047      -272.8226
   7   2.0000     -10.024596      -272.7831
   8   2.0000     -10.018837      -272.6264
   9   2.0000      -0.827092       -22.5063
  10   2.0000      -0.763044       -20.7635
  11   2.0000      -0.711551       -19.3623
  12   2.0000      -0.710082       -19.3223
  13   2.0000      -0.647973       -17.6322
  14   2.0000      -0.584621       -15.9084
  15   2.0000      -0.574250       -15.6261
  16   2.0000      -0.536155       -14.5895
  17   2.0000      -0.460634       -12.5345
  18   2.0000      -0.443825       -12.0771
  19   2.0000      -0.419489       -11.4149
  20   2.0000      -0.395558       -10.7637
  21   2.0000      -0.393738       -10.7141
  22   2.0000      -0.389463       -10.5978
  23   2.0000      -0.382999       -10.4219
  24   2.0000      -0.357390        -9.7251
  25   2.0000      -0.351997        -9.5783
  26   2.0000      -0.334782        -9.1099
  27   2.0000      -0.315164        -8.5761
  28   2.0000      -0.314701        -8.5635
  29   2.0000      -0.297057        -8.0833
  30   2.0000      -0.295501        -8.0410
  31   2.0000      -0.231414        -6.2971
  32   2.0000      -0.212591        -5.7849
  33   0.0000      -0.027534        -0.7492
  34   0.0000      -0.021093        -0.5740
  35   0.0000       0.077132         2.0989
  36   0.0000       0.092867         2.5270
  37   0.0000       0.105420         2.8686

MULLIKEN ATOMIC CHARGES
-----------------------
   0 C :   -0.460237
   1 C :   -0.326952
   2 C :    0.229811
   3 C :   -0.231235
   4 C :   -0.222269
   5 C :    0.214442
   6 C :   -0.221365
   7 C :   -0.231132
   8 C :   -0.534558
   9 H :    0.149399
  10 H :    0.149363
  11 H :    0.146111
  12 H :    0.145652
  13 H :    0.145647
  14 H :    0.145440
  15 H :    0.143969
  16 H :    0.143979
  17 H :    0.145458
  18 H :    0.149894
  19 H :    0.168539
  20 H :    0.150044
Sum of atomic charges:    0.0000000

LOEWDIN ATOMIC CHARGES
----------------------
   0 C :   -0.406842
   1 C :   -0.289379
   2 C :   -0.099314
   3 C :   -0.158513
   4 C :   -0.162080
   5 C :   -0.104976
   6 C :   -0.161883
   7 C :   -0.158458
   8 C :   -0.390981
   9 H :    0.153546
  10 H :    0.153533
  11 H :    0.148252
  12 H :    0.160468
  13 H :    0.160459
  14 H :    0.168140
  15 H :    0.167252
  16 H :    0.167313
  17 H :    0.168149
  18 H :    0.160034
  19 H :    0.165045
  20 H :    0.160234

  Mayer bond orders larger than 0.100000
B(  0-C ,  1-C ) :   0.9257 B(  0-C ,  9-H ) :   0.9790 B(  0-C , 10-H ) :   0.9790
B(  0-C , 11-H ) :   0.9726 B(  1-C ,  2-C ) :   0.7876 B(  1-C , 12-H ) :   0.9933
B(  1-C , 13-H ) :   0.9933 B(  2-C ,  3-C ) :   1.4063 B(  2-C ,  7-C ) :   1.4052
B(  3-C ,  4-C ) :   1.4752 B(  3-C , 14-H ) :   0.9452 B(  4-C ,  5-C ) :   1.4123
B(  4-C , 15-H ) :   0.9427 B(  5-C ,  6-C ) :   1.4107 B(  5-C ,  8-C ) :   0.7861
B(  6-C ,  7-C ) :   1.4759 B(  6-C , 16-H ) :   0.9432 B(  7-C , 17-H ) :   0.9452
B(  8-C , 18-H ) :   0.9908 B(  8-C , 19-H ) :   0.9699 B(  8-C , 20-H ) :   0.9902

Dispersion correction           -0.006786916
FINAL SINGLE POINT ENERGY      -350.082714413366

DIPOLE MOMENT
-------------

Method             : SCF
Type of density    : Electron Density
Multiplicity       :   1
Irrep              :   0
Energy             :  -350.0830539294132109 Eh
Relativity type    :
Basis              : AO
                                X                 Y                 Z
Electronic contribution:      2.612459519      -0.006671262      -1.714834598
Nuclear contribution   :     -2.607118774       0.007873553       1.728762810
                        -----------------------------------------
Total Dipole Moment    :      0.005340745       0.001202292       0.013928212
                        -----------------------------------------
Magnitude (a.u.)       :      0.014965432
Magnitude (Debye)      :      0.038039104

Rotational constants in cm-1:             0.145698             0.032003             0.028394
Rotational constants in MHz :          4367.909473           959.438989           851.218079

                             ****ORCA TERMINATED NORMALLY****
TOTAL RUN TIME: 0 days 0 hours 0 minutes 24 seconds 138 msec
