                         Program Version 6.0.0  -   RELEASE  -
|  1> ! r2scan-3c def2/J RI DEFGRID2 scfconv6 printgap
|  2> %output
|  3>     printlevel normal
|  4> end
|  5> %cpcm
|  6>     smd true
|  7>     smdsolvent "water"
|  8> end
|  9> * xyz 0 1
| 10> C -3.1589987537 0.0025169276 0.8413135282
| 11> C -2.4547517605 -0.0015704954 -0.5175111311
| 12> C -0.9630438543 -0.0011709784 -0.3388008438
| 13> C -0.258644276 -1.1929508764 -0.2292182587
| 14> C 1.1085765324 -1.1924506872 -0.0224104875
| 15> C 1.8131695928 7.99332e-05 0.083701227
| 16> C 1.1076967965 1.1920782163 -0.0241868025
| 17> C -0.2594190609 1.1913476628 -0.230911418
| 18> C 3.2986096146 0.0014160443 0.2833942726
| 19> H -2.8751851461 0.8847050184 1.410722432
| 20> H -2.8782620354 -0.8783929392 1.4141900977
| 21> H -4.2382189647 0.0041102195 0.710156257
| 22> H -2.7588700375 0.881733336 -1.0824542201
| 23> H -2.75913497 -0.8879527532 -1.0775080818
| 24> H -0.7872063977 -2.1325904904 -0.3083576258
| 25> H 1.637255617 -2.1317771684 0.0582033123
| 26> H 1.6359056814 2.1317935005 0.055166739
| 27> H -0.7886810582 2.1304819095 -0.3115660647
| 28> H 3.6179849931 -0.8907398634 0.8163495999
| 29> H 3.8026326468 0.0166335288 -0.6831263734
| 30> H 3.6128302562 0.8803881872 0.8409264722
| 31> *
| 32>
| 33>                          ****END OF INPUT****

CARTESIAN COORDINATES (ANGSTROEM)
---------------------------------
  C     -3.158999    0.002517    0.841314
  C     -2.454752   -0.001570   -0.517511
  C     -0.963044   -0.001171   -0.338801
  C     -0.258644   -1.192951   -0.229218
  C      1.108577   -1.192451   -0.022410
  C      1.813170    0.000080    0.083701
  C      1.107697    1.192078   -0.024187
  C     -0.259419    1.191348   -0.230911
  C      3.298610    0.001416    0.283394
  H     -2.875185    0.884705    1.410722
  H     -2.878262   -0.878393    1.414190
  H     -4.238219    0.004110    0.710156
  H     -2.758870    0.881733   -1.082454
  H     -2.759135   -0.887953   -1.077508
  H     -0.787206   -2.132590   -0.308358
  H      1.637256   -2.131777    0.058203
  H      1.635906    2.131794    0.055167
  H     -0.788681    2.130482   -0.311566
  H      3.617985   -0.890740    0.816350
  H      3.802633    0.016634   -0.683126
  H      3.612830    0.880388    0.840926

 Total Charge           Charge          ....    0
 Multiplicity           Mult            ....    1
 Number of Electrons    NEL             ....   66
 Basis Dimension        Dim             ....  231

ORBITAL ENERGIES
----------------

  NO   OCC          E(Eh)            E(eV)
   0   2.0000     -10.036807      -273.1154
   1   2.0000     -10.033455      -273.0242
   2   2.0000     -10.026058      -272.8229
   3   2.0000     -10.026027      -272.8221
   4   2.0000     -10.025478      -272.8071
   5   2.0000     -10.025470      -272.8069
   6   2.0000     -10.023909      -272.7644
   7   2.0000     -10.016535      -272.5638
   8   2.0000     -10.012589      -272.4564
   9   2.0000      -0.828297       -22.5391
  10   2.0000      -0.760249       -20.6874
  11   2.0000      -0.710540       -19.3348
  12   2.0000      -0.707216       -19.2443
  13   2.0000      -0.643991       -17.5239
  14   2.0000      -0.580113       -15.7857
  15   2.0000      -0.572735       -15.5849
  16   2.0000      -0.534019       -14.5314
  17   2.0000      -0.457133       -12.4392
  18   2.0000      -0.440811       -11.9951
  19   2.0000      -0.415060       -11.2944
  20   2.0000      -0.390545       -10.6273
  21   2.0000      -0.389737       -10.6053
  22   2.0000      -0.384503       -10.4629
  23   2.0000      -0.380256       -10.3473
  24   2.0000      -0.354269        -9.6401
  25   2.0000      -0.345242        -9.3945
  26   2.0000      -0.330539        -8.9944
  27   2.0000      -0.314564        -8.5597
  28   2.0000      -0.309146        -8.4123
  29   2.0000      -0.292804        -7.9676
  30   2.0000      -0.291931        -7.9439
  31   2.0000      -0.235514        -6.4087
  32   2.0000      -0.214651        -5.8410
  33   0.0000      -0.030184        -0.8214
  34   0.0000      -0.022996        -0.6258
  35   0.0000       0.085192         2.3182
  36   0.0000       0.100387         2.7317
  37   0.0000       0.104645         2.8475

MULLIKEN ATOMIC CHARGES
-----------------------
   0 C :   -0.508193
   1 C :   -0.296623
   2 C :    0.172525
   3 C :   -0.252867
   4 C :   -0.252610
   5 C :    0.178854
   6 C :   -0.251401
   7 C :   -0.252910
   8 C :   -0.553598
   9 H :    0.159773
  10 H :    0.159724
  11 H :    0.160199
  12 H :    0.159275
  13 H :    0.159295
  14 H :    0.175664
  15 H :    0.174513
  16 H :    0.174465
  17 H :    0.175677
  18 H :    0.167711
  19 H :    0.182818
  20 H :    0.167708
Sum of atomic charges:    0.0000000

LOEWDIN ATOMIC CHARGES
----------------------
   0 C :   -0.413374
   1 C :   -0.289636
   2 C :   -0.110192
   3 C :   -0.169613
   4 C :   -0.174295
   5 C :   -0.114315
   6 C :   -0.174003
   7 C :   -0.169512
   8 C :   -0.396011
   9 H :    0.155061
  10 H :    0.155042
  11 H :    0.153427
  12 H :    0.165636
  13 H :    0.165628
  14 H :    0.178840
  15 H :    0.177861
  16 H :    0.177908
  17 H :    0.178855
  18 H :    0.165923
  19 H :    0.170652
  20 H :    0.166120

  Mayer bond orders larger than 0.100000
B(  0-C ,  1-C ) :   0.9073 B(  0-C ,  9-H ) :   0.9788 B(  0-C , 10-H ) :   0.9787
B(  0-C , 11-H ) :   0.9682 B(  1-C ,  2-C ) :   0.8050 B(  1-C , 12-H ) :   0.9862
B(  1-C , 13-H ) :   0.9861 B(  2-C ,  3-C ) :   1.3744 B(  2-C ,  7-C ) :   1.3734
B(  3-C ,  4-C ) :   1.4370 B(  3-C , 14-H ) :   0.9574 B(  4-C ,  5-C ) :   1.3755
B(  4-C , 15-H ) :   0.9568 B(  5-C ,  6-C ) :   1.3738 B(  5-C ,  8-C ) :   0.8046
B(  6-C ,  7-C ) :   1.4379 B(  6-C , 16-H ) :   0.9571 B(  7-C , 17-H ) :   0.9575
B(  8-C , 18-H ) :   0.9842 B(  8-C , 19-H ) :   0.9634 B(  8-C , 20-H ) :   0.9835

Dispersion correction           -0.006786916
FINAL SINGLE POINT ENERGY      -350.083547459839

DIPOLE MOMENT
-------------

Method             : SCF
Type of density    : Electron Density
Multiplicity       :   1
Irrep              :   0
Energy             :  -350.0838869758858323 Eh
Relativity type    :
Basis              : AO
                                X                 Y                 Z
Electronic contribution:      2.598684728      -0.005970348      -1.721305678
Nuclear contribution   :     -2.607118774       0.007873553       1.728762810
                        -----------------------------------------
Total Dipole Moment    :     -0.008434047       0.001903205       0.007457132
                        -----------------------------------------
Magnitude (a.u.)       :      0.011417712
Magnitude (Debye)      :      0.029021517

Rotational constants in cm-1:             0.145698             0.032003             0.028394
Rotational constants in MHz :          4367.909473           959.438989           851.218079

                             ****ORCA TERMINATED NORMALLY****
TOTAL RUN TIME: 0 days 0 hours 0 minutes 30 seconds 682 msec
