                         Program Version 6.0.0  -   RELEASE  -
|  1> ! pbe def2-sv(p) def2/J RI DEFGRID1 loosescf d4 GCP(DFT/SV(P)) printgap
|  2> %output
|  3>     printlevel normal
|  4> end
|  5> * xyz 0 1
|  6> C -1.9617145386 -0.6556044345 -0.7889405322
|  7> C -1.1727578634 -0.1462556258 0.4282626832
|  8> H -1.8672522741 -0.1131652318 1.2774504548
|  9> C -0.6107800887 1.2756535623 0.2549191692
| 10> H -1.3434084695 1.8745140642 -0.295466844
| 11> C 0.7259135693 1.3048453551 -0.5203120873
| 12> H 1.1264873342 2.3223342909 -0.4185276859
| 13> C 1.7063878147 0.3039638631 0.1147103116
| 14> H 2.5835195349 0.2023721624 -0.5384897681
| 15> C 1.0568596707 -1.0881411816 0.1995213477
| 16> H 1.6848584176 -1.7125744484 0.8507185143
| 17> O -0.1852345828 -1.0961647028 0.8462505557
| 18> O 0.9992546852 -1.6013835427 -1.1015443933
| 19> O 2.0772250561 0.6733922722 1.4207540806
| 20> O 0.5726648451 1.0871272598 -1.898351283
| 21> O -0.4621709721 1.9093041406 1.5033451555
| 22> O -2.8325465001 -1.705681066 -0.4359853518
| 23> H -1.2790794004 -0.9793515241 -1.5819990034
| 24> H -2.5961090547 0.1436849608 -1.1750277482
| 25> H 0.8666178158 -2.5606987687 -1.0869273292
| 26> H 2.7048366814 1.4100308352 1.3868492169
| 27> H 0.5907665709 0.1331665824 -2.0770530539
| 28> H 0.2292116771 1.441499513 2.0043025175
| 29> H -2.334405324 -2.3705904492 0.0609571022
| 30> *
| 31>
| 32>                          ****END OF INPUT****

CARTESIAN COORDINATES (ANGSTROEM)
---------------------------------
  C     -1.961715   -0.655604   -0.788941
  C     -1.172758   -0.146256    0.428263
  H     -1.867252   -0.113165    1.277450
  C     -0.610780    1.275654    0.254919
  H     -1.343408    1.874514   -0.295467
  C      0.725914    1.304845   -0.520312
  H      1.126487    2.322334   -0.418528
  C      1.706388    0.303964    0.114710
  H      2.583520    0.202372   -0.538490
  C      1.056860   -1.088141    0.199521
  H      1.684858   -1.712574    0.850719
  O     -0.185235   -1.096165    0.846251
  O      0.999255   -1.601384   -1.101544
  O      2.077225    0.673392    1.420754
  O      0.572665    1.087127   -1.898351
  O     -0.462171    1.909304    1.503345
  O     -2.832547   -1.705681   -0.435985
  H     -1.279079   -0.979352   -1.581999
  H     -2.596109    0.143685   -1.175028
  H      0.866618   -2.560699   -1.086927
  H      2.704837    1.410031    1.386849
  H      0.590767    0.133167   -2.077053
  H      0.229212    1.441500    2.004303
  H     -2.334405   -2.370590    0.060957

 Total Charge           Charge          ....    0
 Multiplicity           Mult            ....    1
 Number of Electrons    NEL             ....   96
 Basis Dimension        Dim             ....  192

ORBITAL ENERGIES
----------------

  NO   OCC          E(Eh)            E(eV)
   0   2.0000     -18.794617      -511.4275
   1   2.0000     -18.784753      -511.1591
   2   2.0000     -18.776842      -510.9439
   3   2.0000     -18.749518      -510.2003
   4   2.0000     -18.740169      -509.9459
   5   2.0000     -18.735787      -509.8267
   6   2.0000     -10.004529      -272.2371
   7   2.0000      -9.959720      -271.0178
   8   2.0000      -9.943585      -270.5787
   9   2.0000      -9.939579      -270.4697
  10   2.0000      -9.936224      -270.3784
  11   2.0000      -9.926306      -270.1085
  12   2.0000      -0.998327       -27.1659
  13   2.0000      -0.959354       -26.1053
  14   2.0000      -0.935703       -25.4618
  15   2.0000      -0.928921       -25.2772
  16   2.0000      -0.915050       -24.8998
  17   2.0000      -0.910363       -24.7722
  18   2.0000      -0.703909       -19.1543
  19   2.0000      -0.696875       -18.9629
  20   2.0000      -0.624154       -16.9841
  21   2.0000      -0.591488       -16.0952
  22   2.0000      -0.576048       -15.6751
  23   2.0000      -0.545627       -14.8473
  24   2.0000      -0.508610       -13.8400
  25   2.0000      -0.494145       -13.4464
  26   2.0000      -0.474754       -12.9187
  27   2.0000      -0.461795       -12.5661
  28   2.0000      -0.445757       -12.1297
  29   2.0000      -0.437180       -11.8963
  30   2.0000      -0.412451       -11.2234
  31   2.0000      -0.401031       -10.9126
  32   2.0000      -0.393979       -10.7207
  33   2.0000      -0.376095       -10.2341
  34   2.0000      -0.367111        -9.9896
  35   2.0000      -0.351500        -9.5648
  36   2.0000      -0.336652        -9.1608
  37   2.0000      -0.333836        -9.0841
  38   2.0000      -0.321584        -8.7508
  39   2.0000      -0.289902        -7.8886
  40   2.0000      -0.280511        -7.6331
  41   2.0000      -0.272535        -7.4161
  42   2.0000      -0.264494        -7.1972
  43   2.0000      -0.249780        -6.7969
  44   2.0000      -0.248251        -6.7553
  45   2.0000      -0.231185        -6.2909
  46   2.0000      -0.210540        -5.7291
  47   2.0000      -0.193061        -5.2534
  48   0.0000      -0.006243        -0.1699
  49   0.0000       0.005968         0.1624
  50   0.0000       0.045537         1.2391
  51   0.0000       0.052221         1.4210
  52   0.0000       0.064354         1.7512

MULLIKEN ATOMIC CHARGES
-----------------------
   0 C :    0.055170
   1 C :   -0.010617
   2 H :    0.084296
   3 C :    0.080917
   4 H :    0.078507
   5 C :    0.055390
   6 H :    0.065431
   7 C :   -0.027509
   8 H :    0.088381
   9 C :    0.199827
  10 H :    0.077732
  11 O :   -0.322762
  12 O :   -0.408189
  13 O :   -0.412697
  14 O :   -0.422877
  15 O :   -0.436833
  16 O :   -0.437815
  17 H :    0.064178
  18 H :    0.088226
  19 H :    0.317707
  20 H :    0.317996
  21 H :    0.317786
  22 H :    0.296861
  23 H :    0.290893
Sum of atomic charges:   -0.0000000

LOEWDIN ATOMIC CHARGES
----------------------
   0 C :   -0.140801
   1 C :   -0.077012
   2 H :    0.124035
   3 C :   -0.070164
   4 H :    0.121908
   5 C :   -0.077695
   6 H :    0.110236
   7 C :   -0.091317
   8 H :    0.113267
   9 C :   -0.001974
  10 H :    0.106742
  11 O :   -0.148703
  12 O :   -0.306876
  13 O :   -0.302253
  14 O :   -0.317559
  15 O :   -0.325622
  16 O :   -0.341329
  17 H :    0.092516
  18 H :    0.118211
  19 H :    0.296520
  20 H :    0.297821
  21 H :    0.273943
  22 H :    0.269226
  23 H :    0.276880

  Mayer bond orders larger than 0.100000
B(  0-C ,  1-C ) :   1.0555 B(  0-C , 16-O ) :   1.0532 B(  0-C , 17-H ) :   0.8942
B(  0-C , 18-H ) :   0.9146 B(  1-C ,  2-H ) :   0.8896 B(  1-C ,  3-C ) :   0.9976
B(  1-C , 11-O ) :   0.9506 B(  3-C ,  4-H ) :   0.8896 B(  3-C ,  5-C ) :   0.9467
B(  3-C , 15-O ) :   1.0399 B(  5-C ,  6-H ) :   0.8999 B(  5-C ,  7-C ) :   0.9937
B(  5-C , 14-O ) :   1.0843 B(  7-C ,  8-H ) :   0.8967 B(  7-C ,  9-C ) :   0.9929
B(  7-C , 13-O ) :   1.0443 B(  9-C , 10-H ) :   0.9022 B(  9-C , 11-O ) :   1.0898
B(  9-C , 12-O ) :   1.0813 B( 12-O , 19-H ) :   0.8311 B( 13-O , 20-H ) :   0.8387
B( 14-O , 21-H ) :   0.8043 B( 15-O , 22-H ) :   0.8172 B( 16-O , 23-H ) :   0.8488

Dispersion correction           -0.025810756
FINAL SINGLE POINT ENERGY      -685.695751612841

DIPOLE MOMENT
-------------

Method             : SCF
Type of density    : Electron Density
Multiplicity       :   1
Irrep              :   0
Energy             :  -685.8282741263814160 Eh
Relativity type    :
Basis              : AO
                                X                 Y                 Z
Electronic contribution:      1.127573300      -0.641509807       1.557158199
Nuclear contribution   :      0.345917583      -0.206734325      -1.489750432
                        -----------------------------------------
Total Dipole Moment    :      1.473490883      -0.848244132       0.067407767
                        -----------------------------------------
Magnitude (a.u.)       :      1.701539684
Magnitude (Debye)      :      4.324970167

Rotational constants in cm-1:             0.041447             0.027451             0.024296
Rotational constants in MHz :          1242.535192           822.946607           728.368122

                             ****ORCA TERMINATED NORMALLY****
TOTAL RUN TIME: 0 days 0 hours 0 minutes 12 seconds 254 msec
