                         Program Version 6.0.0  -   RELEASE  -
|  1> ! pbe def2-sv(p) def2/J RI DEFGRID1 loosescf d4 GCP(DFT/SV(P)) printgap
|  2> %output
|  3>     printlevel normal
|  4> end
|  5> * xyz 0 1
|  6> C -2.5621524192 -0.8827586259 0.2612079564
|  7> C -1.1310055081 -0.4494588588 0.6131176053
|  8> H -1.0219875666 -0.4282285379 1.7093897641
|  9> C -0.8333250909 0.9593910012 0.0534742364
| 10> H -1.0793048629 0.9782532514 -1.0135132929
| 11> C 0.6559776165 1.2877349951 0.2316850015
| 12> H 0.8655730923 1.3897984175 1.3135295886
| 13> C 1.5225293378 0.1453629427 -0.3271872866
| 14> H 1.3490742507 0.0707729266 -1.4066617225
| 15> C 1.105272046 -1.1761501474 0.3448206405
| 16> H 1.2560154353 -1.0964982586 1.4363802704
| 17> O -0.2569701658 -1.4241526946 0.07082249
| 18> O 1.8514450816 -2.2596731317 -0.0569456562
| 19> O 2.8898415077 0.4286025295 -0.179166649
| 20> O 0.9450002263 2.5011202391 -0.4148348539
| 21> O -1.6689017298 1.9169627242 0.6439291805
| 22> O -2.7407334974 -1.0603436199 -1.1180271637
| 23> H -3.2501062915 -0.0913669393 0.5634018868
| 24> H -2.7971001627 -1.8058425441 0.8044349452
| 25> H 1.7179662366 -2.4315051518 -1.0021010999
| 26> H 3.1774164421 0.2497684865 0.7279033662
| 27> H 1.904412931 2.5542273916 -0.5529574849
| 28> H -1.3674569849 2.1161254253 1.5425317485
| 29> H -2.1317949034 -1.7519339286 -1.4151609064
| 30> *
| 31>
| 32>                          ****END OF INPUT****

CARTESIAN COORDINATES (ANGSTROEM)
---------------------------------
  C     -2.562152   -0.882759    0.261208
  C     -1.131006   -0.449459    0.613118
  H     -1.021988   -0.428229    1.709390
  C     -0.833325    0.959391    0.053474
  H     -1.079305    0.978253   -1.013513
  C      0.655978    1.287735    0.231685
  H      0.865573    1.389798    1.313530
  C      1.522529    0.145363   -0.327187
  H      1.349074    0.070773   -1.406662
  C      1.105272   -1.176150    0.344821
  H      1.256015   -1.096498    1.436380
  O     -0.256970   -1.424153    0.070822
  O      1.851445   -2.259673   -0.056946
  O      2.889842    0.428603   -0.179167
  O      0.945000    2.501120   -0.414835
  O     -1.668902    1.916963    0.643929
  O     -2.740733   -1.060344   -1.118027
  H     -3.250106   -0.091367    0.563402
  H     -2.797100   -1.805843    0.804435
  H      1.717966   -2.431505   -1.002101
  H      3.177416    0.249768    0.727903
  H      1.904413    2.554227   -0.552957
  H     -1.367457    2.116125    1.542532
  H     -2.131795   -1.751934   -1.415161

 Total Charge           Charge          ....    0
 Multiplicity           Mult            ....    1
 Number of Electrons    NEL             ....   96
 Basis Dimension        Dim             ....  192

ORBITAL ENERGIES
----------------

  NO   OCC          E(Eh)            E(eV)
   0   2.0000     -18.784291      -511.1466
   1   2.0000     -18.772514      -510.8261
   2   2.0000     -18.772301      -510.8203
   3   2.0000     -18.754442      -510.3343
   4   2.0000     -18.749072      -510.1882
   5   2.0000     -18.748629      -510.1761
   6   2.0000     -10.001408      -272.1521
   7   2.0000      -9.952048      -270.8090
   8   2.0000      -9.948829      -270.7214
   9   2.0000      -9.948732      -270.7188
  10   2.0000      -9.942738      -270.5557
  11   2.0000      -9.931369      -270.2463
  12   2.0000      -0.995690       -27.0941
  13   2.0000      -0.953416       -25.9438
  14   2.0000      -0.943264       -25.6675
  15   2.0000      -0.930378       -25.3169
  16   2.0000      -0.919064       -25.0090
  17   2.0000      -0.916801       -24.9474
  18   2.0000      -0.706472       -19.2241
  19   2.0000      -0.696206       -18.9447
  20   2.0000      -0.622137       -16.9292
  21   2.0000      -0.595979       -16.2174
  22   2.0000      -0.566075       -15.4037
  23   2.0000      -0.554923       -15.1002
  24   2.0000      -0.513682       -13.9780
  25   2.0000      -0.486964       -13.2510
  26   2.0000      -0.472881       -12.8677
  27   2.0000      -0.467227       -12.7139
  28   2.0000      -0.454572       -12.3695
  29   2.0000      -0.440389       -11.9836
  30   2.0000      -0.430941       -11.7265
  31   2.0000      -0.414517       -11.2796
  32   2.0000      -0.377136       -10.2624
  33   2.0000      -0.370181       -10.0731
  34   2.0000      -0.365274        -9.9396
  35   2.0000      -0.357328        -9.7234
  36   2.0000      -0.330120        -8.9830
  37   2.0000      -0.323848        -8.8123
  38   2.0000      -0.306814        -8.3488
  39   2.0000      -0.303819        -8.2673
  40   2.0000      -0.288336        -7.8460
  41   2.0000      -0.274668        -7.4741
  42   2.0000      -0.266289        -7.2461
  43   2.0000      -0.254830        -6.9343
  44   2.0000      -0.237292        -6.4571
  45   2.0000      -0.226129        -6.1533
  46   2.0000      -0.218913        -5.9569
  47   2.0000      -0.205054        -5.5798
  48   0.0000       0.007687         0.2092
  49   0.0000       0.012886         0.3507
  50   0.0000       0.028293         0.7699
  51   0.0000       0.032607         0.8873
  52   0.0000       0.048299         1.3143

MULLIKEN ATOMIC CHARGES
-----------------------
   0 C :    0.102730
   1 C :   -0.025062
   2 H :    0.035733
   3 C :    0.082145
   4 H :    0.070809
   5 C :    0.073009
   6 H :    0.013434
   7 C :    0.013148
   8 H :    0.063532
   9 C :    0.175916
  10 H :    0.040254
  11 O :   -0.314321
  12 O :   -0.361933
  13 O :   -0.407465
  14 O :   -0.400369
  15 O :   -0.403464
  16 O :   -0.436788
  17 H :    0.091725
  18 H :    0.079667
  19 H :    0.307233
  20 H :    0.303556
  21 H :    0.301849
  22 H :    0.298045
  23 H :    0.296618
Sum of atomic charges:   -0.0000000

LOEWDIN ATOMIC CHARGES
----------------------
   0 C :   -0.123034
   1 C :   -0.082508
   2 H :    0.096664
   3 C :   -0.069654
   4 H :    0.124722
   5 C :   -0.083930
   6 H :    0.083618
   7 C :   -0.104879
   8 H :    0.118310
   9 C :   -0.007508
  10 H :    0.091612
  11 O :   -0.158787
  12 O :   -0.281702
  13 O :   -0.307093
  14 O :   -0.318338
  15 O :   -0.298602
  16 O :   -0.328747
  17 H :    0.122956
  18 H :    0.100348
  19 H :    0.292314
  20 H :    0.288584
  21 H :    0.282058
  22 H :    0.283958
  23 H :    0.279637

  Mayer bond orders larger than 0.100000
B(  0-C ,  1-C ) :   1.0399 B(  0-C , 16-O ) :   1.0694 B(  0-C , 17-H ) :   0.9095
B(  0-C , 18-H ) :   0.9182 B(  1-C ,  2-H ) :   0.8658 B(  1-C ,  3-C ) :   0.9721
B(  1-C , 11-O ) :   0.9741 B(  3-C ,  4-H ) :   0.8608 B(  3-C ,  5-C ) :   1.0103
B(  3-C , 15-O ) :   1.0378 B(  5-C ,  6-H ) :   0.8582 B(  5-C ,  7-C ) :   0.9945
B(  5-C , 14-O ) :   1.1233 B(  7-C ,  8-H ) :   0.8582 B(  7-C ,  9-C ) :   0.9770
B(  7-C , 13-O ) :   1.0423 B(  9-C , 10-H ) :   0.8762 B(  9-C , 11-O ) :   1.0031
B(  9-C , 12-O ) :   1.1738 B( 12-O , 19-H ) :   0.8412 B( 13-O , 20-H ) :   0.8442
B( 14-O , 21-H ) :   0.8310 B( 15-O , 22-H ) :   0.8467 B( 16-O , 23-H ) :   0.8439

Dispersion correction           -0.023950673
FINAL SINGLE POINT ENERGY      -685.696477764375

DIPOLE MOMENT
-------------

Method             : SCF
Type of density    : Electron Density
Multiplicity       :   1
Irrep              :   0
Energy             :  -685.8260343005797495 Eh
Relativity type    :
Basis              : AO
                                X                 Y                 Z
Electronic contribution:      2.160976650      -0.255921544      -1.691572289
Nuclear contribution   :     -1.277028497      -0.229674034       2.524174852
                        -----------------------------------------
Total Dipole Moment    :      0.883948153      -0.485595577       0.832602564
                        -----------------------------------------
Magnitude (a.u.)       :      1.307820489
Magnitude (Debye)      :      3.324215504

Rotational constants in cm-1:             0.038745             0.027023             0.017756
Rotational constants in MHz :          1161.541084           810.119910           532.304620

                             ****ORCA TERMINATED NORMALLY****
TOTAL RUN TIME: 0 days 0 hours 0 minutes 11 seconds 791 msec
