                         Program Version 6.0.0  -   RELEASE  -
|  1> ! pbe def2-sv(p) def2/J RI DEFGRID1 loosescf d4 GCP(DFT/SV(P)) printgap
|  2> %output
|  3>     printlevel normal
|  4> end
|  5> * xyz 0 1
|  6> C -2.2115753593 -1.2056681476 0.0854234359
|  7> C -0.8565969924 -0.5715071311 0.4203096622
|  8> H -0.8333950229 -0.3093688295 1.4878453031
|  9> C -0.6008139961 0.7063367647 -0.3901635134
| 10> H -0.6599178311 0.4582503209 -1.4645103251
| 11> C 0.8090580496 1.2726541284 -0.1034842111
| 12> H 0.6950926725 2.0774982016 0.6300864428
| 13> C 1.7399717483 0.201010256 0.4982499867
| 14> H 2.7686604529 0.4739195854 0.2259563276
| 15> C 1.4122119006 -1.1534912401 -0.1490773613
| 16> H 2.0681126232 -1.9437839589 0.2495552865
| 17> O 0.1111077311 -1.5845617796 0.1558549888
| 18> O 1.6016353962 -1.0097302171 -1.5253102675
| 19> O 1.5696256793 0.1694474211 1.8896288303
| 20> O 1.3860879183 1.8588033003 -1.238226899
| 21> O -1.5345579263 1.7114726398 -0.0844437298
| 22> O -3.2460484843 -0.3713855805 0.5537593733
| 23> H -2.2393229174 -2.1882811291 0.5691239317
| 24> H -2.2810474505 -1.3430834686 -1.0013882405
| 25> H 1.4591272432 -1.8592326042 -1.9710761595
| 26> H 2.2675179395 -0.3615413135 2.3010755693
| 27> H 1.5495964477 1.1623666089 -1.8954423167
| 28> H -2.3968643068 1.2963667196 0.0986422656
| 29> H -4.1000614263 -0.8047376358 0.4135332383
| 30> *
| 31>
| 32>                          ****END OF INPUT****

CARTESIAN COORDINATES (ANGSTROEM)
---------------------------------
  C     -2.211575   -1.205668    0.085423
  C     -0.856597   -0.571507    0.420310
  H     -0.833395   -0.309369    1.487845
  C     -0.600814    0.706337   -0.390164
  H     -0.659918    0.458250   -1.464510
  C      0.809058    1.272654   -0.103484
  H      0.695093    2.077498    0.630086
  C      1.739972    0.201010    0.498250
  H      2.768660    0.473920    0.225956
  C      1.412212   -1.153491   -0.149077
  H      2.068113   -1.943784    0.249555
  O      0.111108   -1.584562    0.155855
  O      1.601635   -1.009730   -1.525310
  O      1.569626    0.169447    1.889629
  O      1.386088    1.858803   -1.238227
  O     -1.534558    1.711473   -0.084444
  O     -3.246048   -0.371386    0.553759
  H     -2.239323   -2.188281    0.569124
  H     -2.281047   -1.343083   -1.001388
  H      1.459127   -1.859233   -1.971076
  H      2.267518   -0.361541    2.301076
  H      1.549596    1.162367   -1.895442
  H     -2.396864    1.296367    0.098642
  H     -4.100061   -0.804738    0.413533

 Total Charge           Charge          ....    0
 Multiplicity           Mult            ....    1
 Number of Electrons    NEL             ....   96
 Basis Dimension        Dim             ....  192

ORBITAL ENERGIES
----------------

  NO   OCC          E(Eh)            E(eV)
   0   2.0000     -18.777081      -510.9503
   1   2.0000     -18.775951      -510.9196
   2   2.0000     -18.770376      -510.7679
   3   2.0000     -18.759436      -510.4702
   4   2.0000     -18.727092      -509.5901
   5   2.0000     -18.721823      -509.4467
   6   2.0000      -9.990955      -271.8677
   7   2.0000      -9.942163      -270.5400
   8   2.0000      -9.940252      -270.4880
   9   2.0000      -9.937919      -270.4245
  10   2.0000      -9.925422      -270.0845
  11   2.0000      -9.924545      -270.0606
  12   2.0000      -0.986100       -26.8332
  13   2.0000      -0.949311       -25.8321
  14   2.0000      -0.936218       -25.4758
  15   2.0000      -0.919642       -25.0247
  16   2.0000      -0.912405       -24.8278
  17   2.0000      -0.895885       -24.3783
  18   2.0000      -0.698575       -19.0092
  19   2.0000      -0.686927       -18.6922
  20   2.0000      -0.621812       -16.9204
  21   2.0000      -0.578222       -15.7342
  22   2.0000      -0.561219       -15.2716
  23   2.0000      -0.518220       -14.1015
  24   2.0000      -0.504422       -13.7260
  25   2.0000      -0.488418       -13.2905
  26   2.0000      -0.470109       -12.7923
  27   2.0000      -0.460575       -12.5329
  28   2.0000      -0.451651       -12.2900
  29   2.0000      -0.427665       -11.6374
  30   2.0000      -0.408279       -11.1098
  31   2.0000      -0.405909       -11.0453
  32   2.0000      -0.376611       -10.2481
  33   2.0000      -0.366166        -9.9639
  34   2.0000      -0.356887        -9.7114
  35   2.0000      -0.348550        -9.4845
  36   2.0000      -0.329545        -8.9674
  37   2.0000      -0.316299        -8.6069
  38   2.0000      -0.305872        -8.3232
  39   2.0000      -0.292970        -7.9721
  40   2.0000      -0.273319        -7.4374
  41   2.0000      -0.263977        -7.1832
  42   2.0000      -0.253534        -6.8990
  43   2.0000      -0.239571        -6.5191
  44   2.0000      -0.227826        -6.1995
  45   2.0000      -0.219999        -5.9865
  46   2.0000      -0.201932        -5.4948
  47   2.0000      -0.192363        -5.2345
  48   0.0000       0.007375         0.2007
  49   0.0000       0.013396         0.3645
  50   0.0000       0.017979         0.4892
  51   0.0000       0.064481         1.7546
  52   0.0000       0.077030         2.0961

MULLIKEN ATOMIC CHARGES
-----------------------
   0 C :    0.063961
   1 C :    0.015336
   2 H :    0.080391
   3 C :    0.058210
   4 H :    0.023741
   5 C :    0.140167
   6 H :    0.078035
   7 C :   -0.016530
   8 H :    0.075406
   9 C :    0.170981
  10 H :    0.049832
  11 O :   -0.318625
  12 O :   -0.400097
  13 O :   -0.403863
  14 O :   -0.429280
  15 O :   -0.427107
  16 O :   -0.439758
  17 H :    0.087306
  18 H :    0.065827
  19 H :    0.307256
  20 H :    0.303372
  21 H :    0.299226
  22 H :    0.300151
  23 H :    0.316064
Sum of atomic charges:   -0.0000000

LOEWDIN ATOMIC CHARGES
----------------------
   0 C :   -0.126743
   1 C :   -0.069644
   2 H :    0.115969
   3 C :   -0.070439
   4 H :    0.092988
   5 C :   -0.054692
   6 H :    0.128998
   7 C :   -0.091748
   8 H :    0.109663
   9 C :   -0.009899
  10 H :    0.089775
  11 O :   -0.146989
  12 O :   -0.311705
  13 O :   -0.305595
  14 O :   -0.313233
  15 O :   -0.327779
  16 O :   -0.328865
  17 H :    0.105678
  18 H :    0.097094
  19 H :    0.289038
  20 H :    0.289212
  21 H :    0.272015
  22 H :    0.270591
  23 H :    0.296309

  Mayer bond orders larger than 0.100000
B(  0-C ,  1-C ) :   1.0445 B(  0-C , 16-O ) :   1.0474 B(  0-C , 17-H ) :   0.9172
B(  0-C , 18-H ) :   0.9062 B(  1-C ,  2-H ) :   0.8670 B(  1-C ,  3-C ) :   1.0831
B(  1-C , 11-O ) :   0.9608 B(  3-C ,  4-H ) :   0.8460 B(  3-C ,  5-C ) :   1.0075
B(  3-C , 15-O ) :   1.0950 B(  5-C ,  6-H ) :   0.8532 B(  5-C ,  7-C ) :   1.0022
B(  5-C , 14-O ) :   1.0499 B(  7-C ,  8-H ) :   0.8876 B(  7-C ,  9-C ) :   1.0118
B(  7-C , 13-O ) :   1.0408 B(  9-C , 10-H ) :   0.8967 B(  9-C , 11-O ) :   1.0825
B(  9-C , 12-O ) :   1.1066 B( 12-O , 19-H ) :   0.8367 B( 13-O , 20-H ) :   0.8461
B( 14-O , 21-H ) :   0.8322 B( 15-O , 22-H ) :   0.8051 B( 16-O , 22-H ) :   0.1071
B( 16-O , 23-H ) :   0.8412

Dispersion correction           -0.024858212
FINAL SINGLE POINT ENERGY      -685.691500015490

DIPOLE MOMENT
-------------

Method             : SCF
Type of density    : Electron Density
Multiplicity       :   1
Irrep              :   0
Energy             :  -685.8234398931334681 Eh
Relativity type    :
Basis              : AO
                                X                 Y                 Z
Electronic contribution:      1.422828593       0.980477320       0.186563602
Nuclear contribution   :     -1.598897545      -3.123547974      -0.338235145
                        -----------------------------------------
Total Dipole Moment    :     -0.176068952      -2.143070655      -0.151671543
                        -----------------------------------------
Magnitude (a.u.)       :      2.155633634
Magnitude (Debye)      :      5.479185260

Rotational constants in cm-1:             0.043254             0.025335             0.021901
Rotational constants in MHz :          1296.709155           759.528053           656.567221

                             ****ORCA TERMINATED NORMALLY****
TOTAL RUN TIME: 0 days 0 hours 0 minutes 12 seconds 252 msec
