                         Program Version 6.0.0  -   RELEASE  -
|  1> ! r2scan-3c def2/J RI DEFGRID2 scfconv6 printgap
|  2> %output
|  3>     printlevel normal
|  4> end
|  5> * xyz 0 1
|  6> C -1.0185495211 -1.6078851924 -3.40113e-05
|  7> S -0.4683664801 0.0838785634 0.0005472324
|  8> O -0.7983208543 0.7665331597 1.2242612783
|  9> O -0.7970890716 0.7661665631 -1.2237565538
| 10> Cl 1.5839107448 -0.0600026335 -0.0007512549
| 11> H -0.1432899318 -2.241162738 0.0541783811
| 12> H -1.6475598046 -1.728085461 0.8716845001
| 13> H -1.559623431 -1.757951305 -0.9244535613
| 14> *
| 15>
| 16>                          ****END OF INPUT****

CARTESIAN COORDINATES (ANGSTROEM)
---------------------------------
  C     -1.018550   -1.607885   -0.000034
  S     -0.468366    0.083879    0.000547
  O     -0.798321    0.766533    1.224261
  O     -0.797089    0.766167   -1.223757
  Cl     1.583911   -0.060003   -0.000751
  H     -0.143290   -2.241163    0.054178
  H     -1.647560   -1.728085    0.871685
  H     -1.559623   -1.757951   -0.924454

 Total Charge           Charge          ....    0
 Multiplicity           Mult            ....    1
 Number of Electrons    NEL             ....   58
 Basis Dimension        Dim             ....  136

ORBITAL ENERGIES
----------------

  NO   OCC          E(Eh)            E(eV)
   0   2.0000    -101.238226     -2754.8322
   1   2.0000     -88.804713     -2416.4991
   2   2.0000     -18.975452      -516.3483
   3   2.0000     -18.975281      -516.3437
   4   2.0000     -10.106202      -275.0037
   5   2.0000      -9.394476      -255.6367
   6   2.0000      -8.074114      -219.7078
   7   2.0000      -7.140509      -194.3031
   8   2.0000      -7.130818      -194.0394
   9   2.0000      -7.130424      -194.0287
  10   2.0000      -6.021508      -163.8536
  11   2.0000      -6.017933      -163.7563
  12   2.0000      -6.017277      -163.7384
  13   2.0000      -1.111387       -30.2424
  14   2.0000      -1.001594       -27.2548
  15   2.0000      -0.833091       -22.6696
  16   2.0000      -0.773839       -21.0572
  17   2.0000      -0.601760       -16.3747
  18   2.0000      -0.509648       -13.8682
  19   2.0000      -0.479842       -13.0572
  20   2.0000      -0.473494       -12.8844
  21   2.0000      -0.439494       -11.9592
  22   2.0000      -0.430948       -11.7267
  23   2.0000      -0.347021        -9.4429
  24   2.0000      -0.342151        -9.3104
  25   2.0000      -0.324652        -8.8342
  26   2.0000      -0.307906        -8.3785
  27   2.0000      -0.305422        -8.3109
  28   2.0000      -0.284824        -7.7505
  29   0.0000      -0.091999        -2.5034
  30   0.0000       0.011530         0.3137
  31   0.0000       0.023664         0.6439
  32   0.0000       0.045464         1.2371
  33   0.0000       0.076947         2.0938

MULLIKEN ATOMIC CHARGES
-----------------------
   0 C :   -0.460073
   1 S :    0.984039
   2 O :   -0.478578
   3 O :   -0.478808
   4 Cl:   -0.175087
   5 H :    0.201453
   6 H :    0.203398
   7 H :    0.203655
Sum of atomic charges:   -0.0000000

LOEWDIN ATOMIC CHARGES
----------------------
   0 C :   -0.362553
   1 S :    0.596473
   2 O :   -0.472600
   3 O :   -0.473168
   4 Cl:    0.133178
   5 H :    0.191071
   6 H :    0.193921
   7 H :    0.193677

  Mayer bond orders larger than 0.100000
B(  0-C ,  1-S ) :   0.8547 B(  0-C ,  5-H ) :   0.9263 B(  0-C ,  6-H ) :   0.9248
B(  0-C ,  7-H ) :   0.9258 B(  1-S ,  2-O ) :   1.7490 B(  1-S ,  3-O ) :   1.7484
B(  1-S ,  4-Cl) :   0.9614

Dispersion correction           -0.002217086
FINAL SINGLE POINT ENERGY     -1048.629569161991

DIPOLE MOMENT
-------------

Method             : SCF
Type of density    : Electron Density
Multiplicity       :   1
Irrep              :   0
Energy             : -1048.6417590728474352 Eh
Relativity type    :
Basis              : AO
                                X                 Y                 Z
Electronic contribution:      5.014002672       3.629808860      -0.000860320
Nuclear contribution   :     -5.279340234      -5.272325178       0.002322189
                        -----------------------------------------
Total Dipole Moment    :     -0.265337563      -1.642516318       0.001461869
                        -----------------------------------------
Magnitude (a.u.)       :      1.663810691
Magnitude (Debye)      :      4.229070686

Rotational constants in cm-1:             0.151971             0.091815             0.086276
Rotational constants in MHz :          4555.973474          2752.529779          2586.476038

                             ****ORCA TERMINATED NORMALLY****
TOTAL RUN TIME: 0 days 0 hours 0 minutes 12 seconds 970 msec
