                         Program Version 6.0.0  -   RELEASE  -
|  1> ! r2scan-3c def2/J RI DEFGRID2 scfconv6 printgap
|  2> %output
|  3>     printlevel normal
|  4> end
|  5> %cpcm
|  6>     smd true
|  7>     smdsolvent "water"
|  8> end
|  9> * xyz 0 1
| 10> C -1.0185495211 -1.6078851924 -3.40113e-05
| 11> S -0.4683664801 0.0838785634 0.0005472324
| 12> O -0.7983208543 0.7665331597 1.2242612783
| 13> O -0.7970890716 0.7661665631 -1.2237565538
| 14> Cl 1.5839107448 -0.0600026335 -0.0007512549
| 15> H -0.1432899318 -2.241162738 0.0541783811
| 16> H -1.6475598046 -1.728085461 0.8716845001
| 17> H -1.559623431 -1.757951305 -0.9244535613
| 18> *
| 19>
| 20>                          ****END OF INPUT****

CARTESIAN COORDINATES (ANGSTROEM)
---------------------------------
  C     -1.018550   -1.607885   -0.000034
  S     -0.468366    0.083879    0.000547
  O     -0.798321    0.766533    1.224261
  O     -0.797089    0.766167   -1.223757
  Cl     1.583911   -0.060003   -0.000751
  H     -0.143290   -2.241163    0.054178
  H     -1.647560   -1.728085    0.871685
  H     -1.559623   -1.757951   -0.924454

 Total Charge           Charge          ....    0
 Multiplicity           Mult            ....    1
 Number of Electrons    NEL             ....   58
 Basis Dimension        Dim             ....  136

ORBITAL ENERGIES
----------------

  NO   OCC          E(Eh)            E(eV)
   0   2.0000    -101.240443     -2754.8925
   1   2.0000     -88.807792     -2416.5829
   2   2.0000     -18.981891      -516.5235
   3   2.0000     -18.981710      -516.5186
   4   2.0000     -10.080567      -274.3062
   5   2.0000      -9.396667      -255.6963
   6   2.0000      -8.077265      -219.7936
   7   2.0000      -7.142715      -194.3632
   8   2.0000      -7.132931      -194.0969
   9   2.0000      -7.132681      -194.0901
  10   2.0000      -6.024779      -163.9426
  11   2.0000      -6.021584      -163.8556
  12   2.0000      -6.019773      -163.8064
  13   2.0000      -1.118369       -30.4324
  14   2.0000      -1.010104       -27.4863
  15   2.0000      -0.833986       -22.6939
  16   2.0000      -0.756593       -20.5880
  17   2.0000      -0.596582       -16.2338
  18   2.0000      -0.506123       -13.7723
  19   2.0000      -0.481122       -13.0920
  20   2.0000      -0.470959       -12.8155
  21   2.0000      -0.417279       -11.3547
  22   2.0000      -0.416109       -11.3229
  23   2.0000      -0.354183        -9.6378
  24   2.0000      -0.350323        -9.5328
  25   2.0000      -0.324344        -8.8258
  26   2.0000      -0.312372        -8.5001
  27   2.0000      -0.310838        -8.4583
  28   2.0000      -0.292832        -7.9684
  29   0.0000      -0.091527        -2.4906
  30   0.0000       0.018208         0.4955
  31   0.0000       0.029757         0.8097
  32   0.0000       0.050529         1.3750
  33   0.0000       0.103659         2.8207

MULLIKEN ATOMIC CHARGES
-----------------------
   0 C :   -0.439914
   1 S :    0.973004
   2 O :   -0.526259
   3 O :   -0.526360
   4 Cl:   -0.175439
   5 H :    0.231436
   6 H :    0.232021
   7 H :    0.231510
Sum of atomic charges:   -0.0000000

LOEWDIN ATOMIC CHARGES
----------------------
   0 C :   -0.334259
   1 S :    0.604542
   2 O :   -0.513703
   3 O :   -0.514337
   4 Cl:    0.133365
   5 H :    0.206412
   6 H :    0.209246
   7 H :    0.208734

  Mayer bond orders larger than 0.100000
B(  0-C ,  1-S ) :   0.8961 B(  0-C ,  5-H ) :   0.9060 B(  0-C ,  6-H ) :   0.9037
B(  0-C ,  7-H ) :   0.9050 B(  1-S ,  2-O ) :   1.7100 B(  1-S ,  3-O ) :   1.7094
B(  1-S ,  4-Cl) :   0.9698

Dispersion correction           -0.002217086
FINAL SINGLE POINT ENERGY     -1048.642336408934

DIPOLE MOMENT
-------------

Method             : SCF
Type of density    : Electron Density
Multiplicity       :   1
Irrep              :   0
Energy             : -1048.6545263197906479 Eh
Relativity type    :
Basis              : AO
                                X                 Y                 Z
Electronic contribution:      4.952928008       3.025121245       0.000133271
Nuclear contribution   :     -5.279340234      -5.272325178       0.002322189
                        -----------------------------------------
Total Dipole Moment    :     -0.326412227      -2.247203934       0.002455460
                        -----------------------------------------
Magnitude (a.u.)       :      2.270787636
Magnitude (Debye)      :      5.771883473

Rotational constants in cm-1:             0.151971             0.091815             0.086276
Rotational constants in MHz :          4555.973474          2752.529779          2586.476038

                             ****ORCA TERMINATED NORMALLY****
TOTAL RUN TIME: 0 days 0 hours 0 minutes 14 seconds 991 msec
