                         Program Version 6.0.0  -   RELEASE  -
|  1> ! r2scan-3c def2/J RI DEFGRID2 scfconv6 printgap
|  2> %output
|  3>     printlevel normal
|  4> end
|  5> * xyz 0 1
|  6> C -3.6331184578 0.2373294641 -0.0011099984
|  7> C -2.1438865489 0.0686193656 0.001048992
|  8> C -1.5564100519 -1.1878874572 -0.0002419819
|  9> C -0.1791282322 -1.3271748395 -0.0008443803
| 10> C 0.6539580212 -0.2173252003 -0.0001838673
| 11> C 0.0637678736 1.0418250174 0.0013141968
| 12> C -1.3101153056 1.1817166651 0.0018794469
| 13> C 2.1542516794 -0.3815713841 -0.0009166051
| 14> C 2.7704245433 0.2307055422 1.2592294157
| 15> C 2.7696468401 0.2346504871 -1.2595181721
| 16> H -4.1330290264 -0.7269300033 0.0338727006
| 17> H -3.9486674213 0.8268374981 0.8581765658
| 18> H -3.9516985299 0.7628138482 -0.9002503098
| 19> H -2.18070727 -2.0703138996 -0.0007090999
| 20> H 0.2537586644 -2.3180353305 -0.0017338669
| 21> H 0.6825100322 1.9270724662 0.0021889699
| 22> H -1.7473249099 2.1702808661 0.0030977571
| 23> H 2.3776967688 -1.4545187146 -0.0026805899
| 24> H 2.600266053 1.3038576574 1.2891245227
| 25> H 3.8429450175 0.0516815341 1.2776811411
| 26> H 2.3285651026 -0.211810266 2.1492683509
| 27> H 2.5986061063 1.3077524679 -1.2864882564
| 28> H 2.327934127 -0.2058171724 -2.1506722835
| 29> H 3.8423215628 0.0565737463 -1.2787055296
| 30> *
| 31>
| 32>                          ****END OF INPUT****

CARTESIAN COORDINATES (ANGSTROEM)
---------------------------------
  C     -3.633118    0.237329   -0.001110
  C     -2.143887    0.068619    0.001049
  C     -1.556410   -1.187887   -0.000242
  C     -0.179128   -1.327175   -0.000844
  C      0.653958   -0.217325   -0.000184
  C      0.063768    1.041825    0.001314
  C     -1.310115    1.181717    0.001879
  C      2.154252   -0.381571   -0.000917
  C      2.770425    0.230706    1.259229
  C      2.769647    0.234650   -1.259518
  H     -4.133029   -0.726930    0.033873
  H     -3.948667    0.826837    0.858177
  H     -3.951699    0.762814   -0.900250
  H     -2.180707   -2.070314   -0.000709
  H      0.253759   -2.318035   -0.001734
  H      0.682510    1.927072    0.002189
  H     -1.747325    2.170281    0.003098
  H      2.377697   -1.454519   -0.002681
  H      2.600266    1.303858    1.289125
  H      3.842945    0.051682    1.277681
  H      2.328565   -0.211810    2.149268
  H      2.598606    1.307752   -1.286488
  H      2.327934   -0.205817   -2.150672
  H      3.842322    0.056574   -1.278706

 Total Charge           Charge          ....    0
 Multiplicity           Mult            ....    1
 Number of Electrons    NEL             ....   74
 Basis Dimension        Dim             ....  260

ORBITAL ENERGIES
----------------

  NO   OCC          E(Eh)            E(eV)
   0   2.0000     -10.038107      -273.1508
   1   2.0000     -10.036528      -273.1078
   2   2.0000     -10.031861      -272.9808
   3   2.0000     -10.026987      -272.8482
   4   2.0000     -10.026355      -272.8310
   5   2.0000     -10.025997      -272.8212
   6   2.0000     -10.025529      -272.8085
   7   2.0000     -10.024644      -272.7844
   8   2.0000     -10.016597      -272.5654
   9   2.0000     -10.016585      -272.5651
  10   2.0000      -0.828177       -22.5358
  11   2.0000      -0.774483       -21.0747
  12   2.0000      -0.721686       -19.6381
  13   2.0000      -0.709964       -19.3191
  14   2.0000      -0.650402       -17.6983
  15   2.0000      -0.648486       -17.6462
  16   2.0000      -0.578239       -15.7347
  17   2.0000      -0.563792       -15.3416
  18   2.0000      -0.527097       -14.3430
  19   2.0000      -0.464603       -12.6425
  20   2.0000      -0.439117       -11.9490
  21   2.0000      -0.418253       -11.3812
  22   2.0000      -0.401217       -10.9177
  23   2.0000      -0.395311       -10.7570
  24   2.0000      -0.392173       -10.6716
  25   2.0000      -0.382417       -10.4061
  26   2.0000      -0.381612       -10.3842
  27   2.0000      -0.355356        -9.6697
  28   2.0000      -0.352634        -9.5957
  29   2.0000      -0.335364        -9.1257
  30   2.0000      -0.324495        -8.8300
  31   2.0000      -0.311553        -8.4778
  32   2.0000      -0.304746        -8.2925
  33   2.0000      -0.291879        -7.9424
  34   2.0000      -0.287693        -7.8285
  35   2.0000      -0.231350        -6.2953
  36   2.0000      -0.212840        -5.7917
  37   0.0000      -0.027574        -0.7503
  38   0.0000      -0.020673        -0.5625
  39   0.0000       0.076642         2.0855
  40   0.0000       0.089270         2.4292
  41   0.0000       0.101301         2.7565

MULLIKEN ATOMIC CHARGES
-----------------------
   0 C :   -0.543139
   1 C :    0.214858
   2 C :   -0.232824
   3 C :   -0.235736
   4 C :    0.201379
   5 C :   -0.229049
   6 C :   -0.214989
   7 C :   -0.091212
   8 C :   -0.483527
   9 C :   -0.483498
  10 H :    0.149527
  11 H :    0.158974
  12 H :    0.161045
  13 H :    0.143461
  14 H :    0.144611
  15 H :    0.147302
  16 H :    0.143121
  17 H :    0.144443
  18 H :    0.150785
  19 H :    0.147120
  20 H :    0.154715
  21 H :    0.150790
  22 H :    0.154721
  23 H :    0.147123
Sum of atomic charges:    0.0000000

LOEWDIN ATOMIC CHARGES
----------------------
   0 C :   -0.391152
   1 C :   -0.104813
   2 C :   -0.165097
   3 C :   -0.157426
   4 C :   -0.089987
   5 C :   -0.152953
   6 C :   -0.158605
   7 C :   -0.222109
   8 C :   -0.401075
   9 C :   -0.401082
  10 H :    0.158260
  11 H :    0.163407
  12 H :    0.163801
  13 H :    0.166753
  14 H :    0.167610
  15 H :    0.167922
  16 H :    0.167866
  17 H :    0.160271
  18 H :    0.153825
  19 H :    0.151944
  20 H :    0.158435
  21 H :    0.153824
  22 H :    0.158431
  23 H :    0.151950

  Mayer bond orders larger than 0.100000
B(  0-C ,  1-C ) :   0.7870 B(  0-C , 10-H ) :   0.9962 B(  0-C , 11-H ) :   0.9788
B(  0-C , 12-H ) :   0.9769 B(  1-C ,  2-C ) :   1.4321 B(  1-C ,  6-C ) :   1.3894
B(  2-C ,  3-C ) :   1.4527 B(  2-C , 13-H ) :   0.9407 B(  3-C ,  4-C ) :   1.4224
B(  3-C , 14-H ) :   0.9475 B(  4-C ,  5-C ) :   1.3762 B(  4-C ,  7-C ) :   0.7884
B(  5-C ,  6-C ) :   1.4962 B(  5-C , 15-H ) :   0.9392 B(  6-C , 16-H ) :   0.9523
B(  7-C ,  8-C ) :   0.9370 B(  7-C ,  9-C ) :   0.9367 B(  7-C , 17-H ) :   1.0046
B(  8-C , 18-H ) :   0.9759 B(  8-C , 19-H ) :   0.9755 B(  8-C , 20-H ) :   0.9719
B(  9-C , 21-H ) :   0.9759 B(  9-C , 22-H ) :   0.9719 B(  9-C , 23-H ) :   0.9755

Dispersion correction           -0.008206473
FINAL SINGLE POINT ENERGY      -389.383113762887

DIPOLE MOMENT
-------------

Method             : SCF
Type of density    : Electron Density
Multiplicity       :   1
Irrep              :   0
Energy             :  -389.3836143821184237 Eh
Relativity type    :
Basis              : AO
                                X                 Y                 Z
Electronic contribution:     -4.605617077      -1.316851272       0.005072414
Nuclear contribution   :      4.590614702       1.331675650      -0.007345777
                        -----------------------------------------
Total Dipole Moment    :     -0.015002375       0.014824378      -0.002273363
                        -----------------------------------------
Magnitude (a.u.)       :      0.021213242
Magnitude (Debye)      :      0.053919775

Rotational constants in cm-1:             0.109765             0.024725             0.023279
Rotational constants in MHz :          3290.663619           741.236558           697.889467

                             ****ORCA TERMINATED NORMALLY****
TOTAL RUN TIME: 0 days 0 hours 0 minutes 28 seconds 72 msec
