                         Program Version 6.0.0  -   RELEASE  -
|  1> ! r2scan-3c def2/J RI DEFGRID2 scfconv6 printgap
|  2> %output
|  3>     printlevel normal
|  4> end
|  5> %cpcm
|  6>     smd true
|  7>     smdsolvent "water"
|  8> end
|  9> * xyz 0 1
| 10> C -3.6331184578 0.2373294641 -0.0011099984
| 11> C -2.1438865489 0.0686193656 0.001048992
| 12> C -1.5564100519 -1.1878874572 -0.0002419819
| 13> C -0.1791282322 -1.3271748395 -0.0008443803
| 14> C 0.6539580212 -0.2173252003 -0.0001838673
| 15> C 0.0637678736 1.0418250174 0.0013141968
| 16> C -1.3101153056 1.1817166651 0.0018794469
| 17> C 2.1542516794 -0.3815713841 -0.0009166051
| 18> C 2.7704245433 0.2307055422 1.2592294157
| 19> C 2.7696468401 0.2346504871 -1.2595181721
| 20> H -4.1330290264 -0.7269300033 0.0338727006
| 21> H -3.9486674213 0.8268374981 0.8581765658
| 22> H -3.9516985299 0.7628138482 -0.9002503098
| 23> H -2.18070727 -2.0703138996 -0.0007090999
| 24> H 0.2537586644 -2.3180353305 -0.0017338669
| 25> H 0.6825100322 1.9270724662 0.0021889699
| 26> H -1.7473249099 2.1702808661 0.0030977571
| 27> H 2.3776967688 -1.4545187146 -0.0026805899
| 28> H 2.600266053 1.3038576574 1.2891245227
| 29> H 3.8429450175 0.0516815341 1.2776811411
| 30> H 2.3285651026 -0.211810266 2.1492683509
| 31> H 2.5986061063 1.3077524679 -1.2864882564
| 32> H 2.327934127 -0.2058171724 -2.1506722835
| 33> H 3.8423215628 0.0565737463 -1.2787055296
| 34> *
| 35>
| 36>                          ****END OF INPUT****

CARTESIAN COORDINATES (ANGSTROEM)
---------------------------------
  C     -3.633118    0.237329   -0.001110
  C     -2.143887    0.068619    0.001049
  C     -1.556410   -1.187887   -0.000242
  C     -0.179128   -1.327175   -0.000844
  C      0.653958   -0.217325   -0.000184
  C      0.063768    1.041825    0.001314
  C     -1.310115    1.181717    0.001879
  C      2.154252   -0.381571   -0.000917
  C      2.770425    0.230706    1.259229
  C      2.769647    0.234650   -1.259518
  H     -4.133029   -0.726930    0.033873
  H     -3.948667    0.826837    0.858177
  H     -3.951699    0.762814   -0.900250
  H     -2.180707   -2.070314   -0.000709
  H      0.253759   -2.318035   -0.001734
  H      0.682510    1.927072    0.002189
  H     -1.747325    2.170281    0.003098
  H      2.377697   -1.454519   -0.002681
  H      2.600266    1.303858    1.289125
  H      3.842945    0.051682    1.277681
  H      2.328565   -0.211810    2.149268
  H      2.598606    1.307752   -1.286488
  H      2.327934   -0.205817   -2.150672
  H      3.842322    0.056574   -1.278706

 Total Charge           Charge          ....    0
 Multiplicity           Mult            ....    1
 Number of Electrons    NEL             ....   74
 Basis Dimension        Dim             ....  260

ORBITAL ENERGIES
----------------

  NO   OCC          E(Eh)            E(eV)
   0   2.0000     -10.036595      -273.1096
   1   2.0000     -10.032155      -272.9888
   2   2.0000     -10.031974      -272.9839
   3   2.0000     -10.026013      -272.8217
   4   2.0000     -10.025474      -272.8070
   5   2.0000     -10.025471      -272.8069
   6   2.0000     -10.024979      -272.7935
   7   2.0000     -10.016532      -272.5637
   8   2.0000     -10.009801      -272.3805
   9   2.0000     -10.009796      -272.3804
  10   2.0000      -0.829021       -22.5588
  11   2.0000      -0.770895       -20.9771
  12   2.0000      -0.718174       -19.5425
  13   2.0000      -0.710146       -19.3240
  14   2.0000      -0.644589       -17.5402
  15   2.0000      -0.644480       -17.5372
  16   2.0000      -0.575710       -15.6659
  17   2.0000      -0.560889       -15.2626
  18   2.0000      -0.524004       -14.2589
  19   2.0000      -0.460363       -12.5271
  20   2.0000      -0.436316       -11.8728
  21   2.0000      -0.413608       -11.2548
  22   2.0000      -0.396062       -10.7774
  23   2.0000      -0.390881       -10.6364
  24   2.0000      -0.388476       -10.5710
  25   2.0000      -0.379484       -10.3263
  26   2.0000      -0.376136       -10.2352
  27   2.0000      -0.348556        -9.4847
  28   2.0000      -0.345860        -9.4113
  29   2.0000      -0.331179        -9.0118
  30   2.0000      -0.323809        -8.8113
  31   2.0000      -0.306265        -8.3339
  32   2.0000      -0.300793        -8.1850
  33   2.0000      -0.286861        -7.8059
  34   2.0000      -0.283431        -7.7126
  35   2.0000      -0.235309        -6.4031
  36   2.0000      -0.214742        -5.8434
  37   0.0000      -0.030103        -0.8192
  38   0.0000      -0.022502        -0.6123
  39   0.0000       0.084140         2.2896
  40   0.0000       0.097347         2.6490
  41   0.0000       0.106262         2.8915

MULLIKEN ATOMIC CHARGES
-----------------------
   0 C :   -0.562212
   1 C :    0.183577
   2 C :   -0.265383
   3 C :   -0.260039
   4 C :    0.137228
   5 C :   -0.259313
   6 C :   -0.236796
   7 C :   -0.034591
   8 C :   -0.534521
   9 C :   -0.534511
  10 H :    0.168850
  11 H :    0.174074
  12 H :    0.175842
  13 H :    0.174341
  14 H :    0.174607
  15 H :    0.181049
  16 H :    0.172644
  17 H :    0.162148
  18 H :    0.168102
  19 H :    0.162146
  20 H :    0.161237
  21 H :    0.168114
  22 H :    0.161258
  23 H :    0.162148
Sum of atomic charges:    0.0000000

LOEWDIN ATOMIC CHARGES
----------------------
   0 C :   -0.396172
   1 C :   -0.113931
   2 C :   -0.178174
   3 C :   -0.169739
   4 C :   -0.100566
   5 C :   -0.163980
   6 C :   -0.169478
   7 C :   -0.219567
   8 C :   -0.409019
   9 C :   -0.409027
  10 H :    0.164077
  11 H :    0.169130
  12 H :    0.169499
  13 H :    0.177446
  14 H :    0.177983
  15 H :    0.179950
  16 H :    0.178226
  17 H :    0.166072
  18 H :    0.158292
  19 H :    0.156879
  20 H :    0.158458
  21 H :    0.158295
  22 H :    0.158461
  23 H :    0.156884

  Mayer bond orders larger than 0.100000
B(  0-C ,  1-C ) :   0.8038 B(  0-C , 10-H ) :   0.9910 B(  0-C , 11-H ) :   0.9716
B(  0-C , 12-H ) :   0.9697 B(  1-C ,  2-C ) :   1.3946 B(  1-C ,  6-C ) :   1.3504
B(  2-C ,  3-C ) :   1.4138 B(  2-C , 13-H ) :   0.9566 B(  3-C ,  4-C ) :   1.3890
B(  3-C , 14-H ) :   0.9605 B(  4-C ,  5-C ) :   1.3541 B(  4-C ,  7-C ) :   0.7994
B(  5-C ,  6-C ) :   1.4554 B(  5-C , 15-H ) :   0.9515 B(  6-C , 16-H ) :   0.9653
B(  7-C ,  8-C ) :   0.9124 B(  7-C ,  9-C ) :   0.9121 B(  7-C , 17-H ) :   1.0029
B(  8-C , 18-H ) :   0.9747 B(  8-C , 19-H ) :   0.9718 B(  8-C , 20-H ) :   0.9714
B(  9-C , 21-H ) :   0.9747 B(  9-C , 22-H ) :   0.9714 B(  9-C , 23-H ) :   0.9717

Dispersion correction           -0.008206473
FINAL SINGLE POINT ENERGY      -389.383508805829

DIPOLE MOMENT
-------------

Method             : SCF
Type of density    : Electron Density
Multiplicity       :   1
Irrep              :   0
Energy             :  -389.3840094250603556 Eh
Relativity type    :
Basis              : AO
                                X                 Y                 Z
Electronic contribution:     -4.578089170      -1.290094717       0.004143740
Nuclear contribution   :      4.590614702       1.331675650      -0.007345777
                        -----------------------------------------
Total Dipole Moment    :      0.012525532       0.041580933      -0.003202037
                        -----------------------------------------
Magnitude (a.u.)       :      0.043544414
Magnitude (Debye)      :      0.110681103

Rotational constants in cm-1:             0.109765             0.024725             0.023279
Rotational constants in MHz :          3290.663619           741.236558           697.889467

                             ****ORCA TERMINATED NORMALLY****
TOTAL RUN TIME: 0 days 0 hours 0 minutes 35 seconds 244 msec
