                         Program Version 6.0.0  -   RELEASE  -
|  1> ! wb97x-v def2-tzvp def2/J RIJCOSX DEFGRID2 scfconv7 GCP(DFT/TZ) printgap
|  2> %output
|  3>     printlevel normal
|  4> end
|  5> * xyz 0 1
|  6> C 1.8561053031295647 0.0700636650454906 0.25590797621589645
|  7> C 0.54536597256126 -0.16161850380653256 -0.4582699363405589
|  8> O -0.5288858883109588 0.15369648884625198 0.44041607546391154
|  9> C -1.798454338822292 -0.044761801394504606 -0.17990679920180686
| 10> H 1.9521341486394108 1.1146871692043179 0.56770339005318
| 11> H 1.9377973204450205 -0.5693176831945795 1.1403575206244885
| 12> H 2.688589771154409 -0.16501531724787968 -0.41415945409651683
| 13> H 0.45381459051969286 -1.2105751835570324 -0.7809085084932337
| 14> H 0.4681529493195774 0.4737264675483516 -1.3544367754670963
| 15> H -1.9120865058898853 0.5990939142380052 -1.0641092388020517
| 16> H -2.5655314911417215 0.2146888549220006 0.5537641451821232
| 17> H -1.9310837892885222 -1.0928493103902994 -0.4852039119831081
| 18> *
| 19>
| 20>                          ****END OF INPUT****

CARTESIAN COORDINATES (ANGSTROEM)
---------------------------------
  C      1.856105    0.070064    0.255908
  C      0.545366   -0.161619   -0.458270
  O     -0.528886    0.153696    0.440416
  C     -1.798454   -0.044762   -0.179907
  H      1.952134    1.114687    0.567703
  H      1.937797   -0.569318    1.140358
  H      2.688590   -0.165015   -0.414159
  H      0.453815   -1.210575   -0.780909
  H      0.468153    0.473726   -1.354437
  H     -1.912087    0.599094   -1.064109
  H     -2.565531    0.214689    0.553764
  H     -1.931084   -1.092849   -0.485204

 Total Charge           Charge          ....    0
 Multiplicity           Mult            ....    1
 Number of Electrons    NEL             ....   34
 Basis Dimension        Dim             ....  172

ORBITAL ENERGIES
----------------

  NO   OCC          E(Eh)            E(eV)
   0   2.0000     -21.670400      -589.6816
   1   2.0000     -12.090749      -329.0060
   2   2.0000     -12.085087      -328.8519
   3   2.0000     -12.035260      -327.4961
   4   2.0000      -1.673167       -45.5292
   5   2.0000      -1.280504       -34.8443
   6   2.0000      -1.188652       -32.3449
   7   2.0000      -1.105120       -30.0718
   8   2.0000      -0.984747       -26.7963
   9   2.0000      -0.963757       -26.2252
  10   2.0000      -0.948149       -25.8005
  11   2.0000      -0.857221       -23.3262
  12   2.0000      -0.828665       -22.5491
  13   2.0000      -0.816621       -22.2214
  14   2.0000      -0.801219       -21.8023
  15   2.0000      -0.796716       -21.6798
  16   2.0000      -0.756878       -20.5957
  17   0.0000      -0.155872        -4.2415
  18   0.0000      -0.096782        -2.6336
  19   0.0000      -0.014880        -0.4049
  20   0.0000       0.001376         0.0374
  21   0.0000       0.017327         0.4715

MULLIKEN ATOMIC CHARGES
-----------------------
   0 C :   -0.305426
   1 C :   -0.016840
   2 O :   -0.297215
   3 C :   -0.179039
   4 H :    0.111620
   5 H :    0.111707
   6 H :    0.103036
   7 H :    0.077124
   8 H :    0.077106
   9 H :    0.097563
  10 H :    0.122691
  11 H :    0.097673
Sum of atomic charges:    0.0000000

LOEWDIN ATOMIC CHARGES
----------------------
   0 C :   -0.306201
   1 C :   -0.342077
   2 O :    0.107590
   3 C :   -0.345504
   4 H :    0.119936
   5 H :    0.119962
   6 H :    0.120234
   7 H :    0.112424
   8 H :    0.112404
   9 H :    0.096634
  10 H :    0.107969
  11 H :    0.096627

  Mayer bond orders larger than 0.100000
B(  0-C ,  1-C ) :   1.0119 B(  0-C ,  4-H ) :   0.9770 B(  0-C ,  5-H ) :   0.9770
B(  0-C ,  6-H ) :   0.9717 B(  1-C ,  2-O ) :   1.0042 B(  1-C ,  7-H ) :   0.9651
B(  1-C ,  8-H ) :   0.9651 B(  2-O ,  3-C ) :   1.0033 B(  3-C ,  9-H ) :   0.9777
B(  3-C , 10-H ) :   0.9788 B(  3-C , 11-H ) :   0.9777

FINAL SINGLE POINT ENERGY      -194.348710211952

DIPOLE MOMENT
-------------

Method             : SCF
Type of density    : Electron Density
Multiplicity       :   1
Irrep              :   0
Energy             :  -194.3571277079524577 Eh
Relativity type    :
Basis              : AO
                                X                 Y                 Z
Electronic contribution:     -1.059096969       0.455120236       1.315456911
Nuclear contribution   :      1.031269051      -0.616650739      -1.792379450
                        -----------------------------------------
Total Dipole Moment    :     -0.027827918      -0.161530503      -0.476922539
                        -----------------------------------------
Magnitude (a.u.)       :      0.504303088
Magnitude (Debye)      :      1.281836581

Rotational constants in cm-1:             0.929388             0.137265             0.128346
Rotational constants in MHz :         27862.348615          4115.095671          3847.721711

                             ****ORCA TERMINATED NORMALLY****
TOTAL RUN TIME: 0 days 0 hours 0 minutes 31 seconds 722 msec
