                         Program Version 6.0.0  -   RELEASE  -
|  1> ! wb97x-v def2-tzvp def2/J RIJCOSX DEFGRID2 scfconv7 GCP(DFT/TZ) printgap
|  2> %output
|  3>     printlevel normal
|  4> end
|  5> %cpcm
|  6>     smd true
|  7>     smdsolvent "water"
|  8> end
|  9> * xyz 0 1
| 10> C 1.8561053031295647 0.0700636650454906 0.25590797621589645
| 11> C 0.54536597256126 -0.16161850380653256 -0.4582699363405589
| 12> O -0.5288858883109588 0.15369648884625198 0.44041607546391154
| 13> C -1.798454338822292 -0.044761801394504606 -0.17990679920180686
| 14> H 1.9521341486394108 1.1146871692043179 0.56770339005318
| 15> H 1.9377973204450205 -0.5693176831945795 1.1403575206244885
| 16> H 2.688589771154409 -0.16501531724787968 -0.41415945409651683
| 17> H 0.45381459051969286 -1.2105751835570324 -0.7809085084932337
| 18> H 0.4681529493195774 0.4737264675483516 -1.3544367754670963
| 19> H -1.9120865058898853 0.5990939142380052 -1.0641092388020517
| 20> H -2.5655314911417215 0.2146888549220006 0.5537641451821232
| 21> H -1.9310837892885222 -1.0928493103902994 -0.4852039119831081
| 22> *
| 23>
| 24>                          ****END OF INPUT****

CARTESIAN COORDINATES (ANGSTROEM)
---------------------------------
  C      1.856105    0.070064    0.255908
  C      0.545366   -0.161619   -0.458270
  O     -0.528886    0.153696    0.440416
  C     -1.798454   -0.044762   -0.179907
  H      1.952134    1.114687    0.567703
  H      1.937797   -0.569318    1.140358
  H      2.688590   -0.165015   -0.414159
  H      0.453815   -1.210575   -0.780909
  H      0.468153    0.473726   -1.354437
  H     -1.912087    0.599094   -1.064109
  H     -2.565531    0.214689    0.553764
  H     -1.931084   -1.092849   -0.485204

 Total Charge           Charge          ....    0
 Multiplicity           Mult            ....    1
 Number of Electrons    NEL             ....   34
 Basis Dimension        Dim             ....  172

ORBITAL ENERGIES
----------------

  NO   OCC          E(Eh)            E(eV)
   0   2.0000     -21.676002      -589.8340
   1   2.0000     -12.084414      -328.8336
   2   2.0000     -12.078017      -328.6595
   3   2.0000     -12.028962      -327.3247
   4   2.0000      -1.678766       -45.6815
   5   2.0000      -1.277507       -34.7627
   6   2.0000      -1.185020       -32.2460
   7   2.0000      -1.102507       -30.0008
   8   2.0000      -0.982700       -26.7406
   9   2.0000      -0.966912       -26.3110
  10   2.0000      -0.950770       -25.8718
  11   2.0000      -0.851935       -23.1823
  12   2.0000      -0.824265       -22.4294
  13   2.0000      -0.810317       -22.0498
  14   2.0000      -0.796525       -21.6746
  15   2.0000      -0.792143       -21.5553
  16   2.0000      -0.752939       -20.4885
  17   0.0000      -0.152549        -4.1511
  18   0.0000      -0.094237        -2.5643
  19   0.0000      -0.003504        -0.0953
  20   0.0000       0.008475         0.2306
  21   0.0000       0.029603         0.8055

MULLIKEN ATOMIC CHARGES
-----------------------
   0 C :   -0.356105
   1 C :   -0.028394
   2 O :   -0.381101
   3 C :   -0.209149
   4 H :    0.123032
   5 H :    0.123177
   6 H :    0.129223
   7 H :    0.105048
   8 H :    0.105252
   9 H :    0.123901
  10 H :    0.141279
  11 H :    0.123838
Sum of atomic charges:   -0.0000000

LOEWDIN ATOMIC CHARGES
----------------------
   0 C :   -0.314496
   1 C :   -0.340165
   2 O :    0.070098
   3 C :   -0.346425
   4 H :    0.120346
   5 H :    0.120374
   6 H :    0.127740
   7 H :    0.120652
   8 H :    0.120709
   9 H :    0.104796
  10 H :    0.111626
  11 H :    0.104746

  Mayer bond orders larger than 0.100000
B(  0-C ,  1-C ) :   1.0047 B(  0-C ,  4-H ) :   0.9730 B(  0-C ,  5-H ) :   0.9730
B(  0-C ,  6-H ) :   0.9693 B(  1-C ,  2-O ) :   0.9670 B(  1-C ,  7-H ) :   0.9679
B(  1-C ,  8-H ) :   0.9679 B(  2-O ,  3-C ) :   0.9675 B(  3-C ,  9-H ) :   0.9767
B(  3-C , 10-H ) :   0.9719 B(  3-C , 11-H ) :   0.9767

FINAL SINGLE POINT ENERGY      -194.351079035226

DIPOLE MOMENT
-------------

Method             : SCF
Type of density    : Electron Density
Multiplicity       :   1
Irrep              :   0
Energy             :  -194.3594965312255454 Eh
Relativity type    :
Basis              : AO
                                X                 Y                 Z
Electronic contribution:     -1.067819083       0.366841852       1.056609858
Nuclear contribution   :      1.031269051      -0.616650739      -1.792379450
                        -----------------------------------------
Total Dipole Moment    :     -0.036550032      -0.249808887      -0.735769592
                        -----------------------------------------
Magnitude (a.u.)       :      0.777879989
Magnitude (Debye)      :      1.977213801

Rotational constants in cm-1:             0.929388             0.137265             0.128346
Rotational constants in MHz :         27862.348615          4115.095671          3847.721711

                             ****ORCA TERMINATED NORMALLY****
TOTAL RUN TIME: 0 days 0 hours 0 minutes 37 seconds 158 msec
