                         Program Version 6.0.0  -   RELEASE  -
|  1> ! wb97x-v def2-tzvp def2/J RIJCOSX DEFGRID2 scfconv7 GCP(DFT/TZ) printgap
|  2> %output
|  3>     printlevel normal
|  4> end
|  5> * xyz 0 1
|  6> C -1.9454094212763644 -0.10243560511734583 -0.013811059261800124
|  7> C -0.5600665723619055 0.5378801437660621 -0.024748949404670602
|  8> C 0.5504860093749945 -0.5020586752450878 -0.024479940027956375
|  9> N 1.8805384657568707 0.14008871545598356 -0.012332150572244427
| 10> H -2.082814642001083 -0.729041751419108 0.8743919716517274
| 11> H -2.733987477765384 0.6562237913718117 -0.012620779170358273
| 12> H -2.091947540753281 -0.7362976971867244 -0.895610618777419
| 13> H -0.4445703796741145 1.1843278899276588 0.8559460416640817
| 14> H -0.4513637146518906 1.1815818399412765 -0.9065705829079526
| 15> H 0.3989166630132897 -1.18171364562424 0.830742706447011
| 16> H 0.4725536194114487 -1.1147056188099513 -0.9310122558274345
| 17> H 2.5872316189990454 -0.5884153428229378 0.028513988008561555
| 18> H 1.9721138790229462 0.6439398097087778 0.866244323585482
| 19> *
| 20>
| 21>                          ****END OF INPUT****

CARTESIAN COORDINATES (ANGSTROEM)
---------------------------------
  C     -1.945409   -0.102436   -0.013811
  C     -0.560067    0.537880   -0.024749
  C      0.550486   -0.502059   -0.024480
  N      1.880538    0.140089   -0.012332
  H     -2.082815   -0.729042    0.874392
  H     -2.733987    0.656224   -0.012621
  H     -2.091948   -0.736298   -0.895611
  H     -0.444570    1.184328    0.855946
  H     -0.451364    1.181582   -0.906571
  H      0.398917   -1.181714    0.830743
  H      0.472554   -1.114706   -0.931012
  H      2.587232   -0.588415    0.028514
  H      1.972114    0.643940    0.866244

 Total Charge           Charge          ....    0
 Multiplicity           Mult            ....    1
 Number of Electrons    NEL             ....   34
 Basis Dimension        Dim             ....  178

ORBITAL ENERGIES
----------------

  NO   OCC          E(Eh)            E(eV)
   0   2.0000     -16.503221      -449.0755
   1   2.0000     -12.063689      -328.2697
   2   2.0000     -12.038232      -327.5769
   3   2.0000     -12.033903      -327.4592
   4   2.0000      -1.439154       -39.1614
   5   2.0000      -1.276887       -34.7459
   6   2.0000      -1.161494       -31.6058
   7   2.0000      -1.059603       -28.8333
   8   2.0000      -0.953282       -25.9401
   9   2.0000      -0.923205       -25.1217
  10   2.0000      -0.883709       -24.0470
  11   2.0000      -0.844453       -22.9787
  12   2.0000      -0.816525       -22.2188
  13   2.0000      -0.813754       -22.1434
  14   2.0000      -0.773731       -21.0543
  15   2.0000      -0.755577       -20.5603
  16   2.0000      -0.713859       -19.4251
  17   0.0000      -0.074783        -2.0350
  18   0.0000      -0.027931        -0.7600
  19   0.0000      -0.002015        -0.0548
  20   0.0000       0.012338         0.3357
  21   0.0000       0.020834         0.5669

MULLIKEN ATOMIC CHARGES
-----------------------
   0 C :   -0.341859
   1 C :   -0.144763
   2 C :   -0.094515
   3 N :   -0.488709
   4 H :    0.101646
   5 H :    0.115031
   6 H :    0.104970
   7 H :    0.075649
   8 H :    0.099065
   9 H :    0.075658
  10 H :    0.088759
  11 H :    0.205175
  12 H :    0.203893
Sum of atomic charges:   -0.0000000

LOEWDIN ATOMIC CHARGES
----------------------
   0 C :   -0.308869
   1 C :   -0.298377
   2 C :   -0.336935
   3 N :   -0.183532
   4 H :    0.114747
   5 H :    0.116410
   6 H :    0.116343
   7 H :    0.127297
   8 H :    0.133279
   9 H :    0.109302
  10 H :    0.123555
  11 H :    0.142742
  12 H :    0.144037

  Mayer bond orders larger than 0.100000
B(  0-C ,  1-C ) :   0.9839 B(  0-C ,  4-H ) :   0.9775 B(  0-C ,  5-H ) :   0.9833
B(  0-C ,  6-H ) :   0.9803 B(  1-C ,  2-C ) :   0.9938 B(  1-C ,  7-H ) :   0.9710
B(  1-C ,  8-H ) :   0.9727 B(  2-C ,  3-N ) :   1.0193 B(  2-C ,  9-H ) :   0.9787
B(  2-C , 10-H ) :   0.9657 B(  3-N , 11-H ) :   0.9462 B(  3-N , 12-H ) :   0.9438

FINAL SINGLE POINT ENERGY      -174.490091945086

DIPOLE MOMENT
-------------

Method             : SCF
Type of density    : Electron Density
Multiplicity       :   1
Irrep              :   0
Energy             :  -174.4991231065861825 Eh
Relativity type    :
Basis              : AO
                                X                 Y                 Z
Electronic contribution:      2.233019911       0.396615627      -0.251667001
Nuclear contribution   :     -2.283424120      -0.708578577       0.696677608
                        -----------------------------------------
Total Dipole Moment    :     -0.050404208      -0.311962949       0.445010607
                        -----------------------------------------
Magnitude (a.u.)       :      0.545798412
Magnitude (Debye)      :      1.387309311

Rotational constants in cm-1:             0.838784             0.124265             0.116342
Rotational constants in MHz :         25146.113922          3725.362572          3487.851436

                             ****ORCA TERMINATED NORMALLY****
TOTAL RUN TIME: 0 days 0 hours 0 minutes 47 seconds 510 msec
