                         Program Version 6.0.0  -   RELEASE  -
|  1> ! pbe def2-sv(p) def2/J RI DEFGRID1 loosescf d4 GCP(DFT/SV(P)) printgap
|  2> %output
|  3>     printlevel normal
|  4> end
|  5> * xyz 0 1
|  6> C -1.49226e-05 -2.5148547042 -3.79622e-05
|  7> C 1.2070960043 -1.8329865596 -7.8689e-06
|  8> C 1.2058033729 -0.4502579717 3.65753e-05
|  9> C 3.7875e-06 0.2626758375 7.66953e-05
| 10> C -1.2058147939 -0.4502395833 7.77981e-05
| 11> C -1.207121854 -1.8329752065 6.7118e-06
| 12> Cl -2.6966405287 0.432278337 -2.98329e-05
| 13> C 1.83047e-05 1.6741130751 2.81903e-05
| 14> N 4.89536e-05 2.8218338916 -2.10355e-05
| 15> Cl 2.6966327153 0.4322476605 -2.07427e-05
| 16> H -1.73615e-05 -3.5925230205 -5.2178e-05
| 17> H 2.1443755382 -2.3632414244 -2.56008e-05
| 18> H -2.1444049386 -2.3632201709 2.4575e-06
| 19> *
| 20>
| 21>                          ****END OF INPUT****

CARTESIAN COORDINATES (ANGSTROEM)
---------------------------------
  C     -0.000015   -2.514855   -0.000038
  C      1.207096   -1.832987   -0.000008
  C      1.205803   -0.450258    0.000037
  C      0.000004    0.262676    0.000077
  C     -1.205815   -0.450240    0.000078
  C     -1.207122   -1.832975    0.000007
  Cl    -2.696641    0.432278   -0.000030
  C      0.000018    1.674113    0.000028
  N      0.000049    2.821834   -0.000021
  Cl     2.696633    0.432248   -0.000021
  H     -0.000017   -3.592523   -0.000052
  H      2.144376   -2.363241   -0.000026
  H     -2.144405   -2.363220    0.000002

 Total Charge           Charge          ....    0
 Multiplicity           Mult            ....    1
 Number of Electrons    NEL             ....   86
 Basis Dimension        Dim             ....  154

ORBITAL ENERGIES
----------------

  NO   OCC          E(Eh)            E(eV)
   0   2.0000    -100.665717     -2739.2534
   1   2.0000    -100.665714     -2739.2533
   2   2.0000     -13.988171      -380.6375
   3   2.0000      -9.990200      -271.8472
   4   2.0000      -9.990186      -271.8468
   5   2.0000      -9.963167      -271.1116
   6   2.0000      -9.941399      -270.5192
   7   2.0000      -9.937455      -270.4119
   8   2.0000      -9.933987      -270.3175
   9   2.0000      -9.933982      -270.3174
  10   2.0000      -9.201328      -250.3809
  11   2.0000      -9.201326      -250.3808
  12   2.0000      -7.032889      -191.3746
  13   2.0000      -7.032887      -191.3746
  14   2.0000      -7.021372      -191.0612
  15   2.0000      -7.021371      -191.0612
  16   2.0000      -7.020472      -191.0368
  17   2.0000      -7.020469      -191.0367
  18   2.0000      -0.861515       -23.4430
  19   2.0000      -0.823074       -22.3970
  20   2.0000      -0.818304       -22.2672
  21   2.0000      -0.776585       -21.1320
  22   2.0000      -0.722685       -19.6652
  23   2.0000      -0.687748       -18.7146
  24   2.0000      -0.610378       -16.6092
  25   2.0000      -0.572894       -15.5892
  26   2.0000      -0.527676       -14.3588
  27   2.0000      -0.474721       -12.9178
  28   2.0000      -0.467779       -12.7289
  29   2.0000      -0.431394       -11.7388
  30   2.0000      -0.422725       -11.5029
  31   2.0000      -0.408890       -11.1265
  32   2.0000      -0.370974       -10.0947
  33   2.0000      -0.366108        -9.9623
  34   2.0000      -0.346748        -9.4355
  35   2.0000      -0.329869        -8.9762
  36   2.0000      -0.309524        -8.4226
  37   2.0000      -0.305411        -8.3107
  38   2.0000      -0.305030        -8.3003
  39   2.0000      -0.294571        -8.0157
  40   2.0000      -0.282726        -7.6934
  41   2.0000      -0.250451        -6.8151
  42   2.0000      -0.244517        -6.6537
  43   0.0000      -0.099280        -2.7015
  44   0.0000      -0.075231        -2.0471
  45   0.0000      -0.029778        -0.8103
  46   0.0000      -0.006070        -0.1652
  47   0.0000       0.014362         0.3908

MULLIKEN ATOMIC CHARGES
-----------------------
   0 C :   -0.014445
   1 C :   -0.111878
   2 C :    0.128537
   3 C :   -0.081387
   4 C :    0.128532
   5 C :   -0.111875
   6 Cl:   -0.026783
   7 C :   -0.213972
   8 N :    0.122616
   9 Cl:   -0.026783
  10 H :    0.080849
  11 H :    0.063295
  12 H :    0.063295
Sum of atomic charges:   -0.0000000

LOEWDIN ATOMIC CHARGES
----------------------
   0 C :   -0.093870
   1 C :   -0.137946
   2 C :   -0.100642
   3 C :   -0.113561
   4 C :   -0.100641
   5 C :   -0.137946
   6 Cl:    0.176519
   7 C :   -0.059451
   8 N :   -0.026539
   9 Cl:    0.176521
  10 H :    0.138381
  11 H :    0.139588
  12 H :    0.139587

  Mayer bond orders larger than 0.100000
B(  0-C ,  1-C ) :   1.3354 B(  0-C ,  3-C ) :   0.1064 B(  0-C ,  5-C ) :   1.3354
B(  0-C , 10-H ) :   0.9606 B(  1-C ,  2-C ) :   1.3646 B(  1-C , 11-H ) :   0.9692
B(  2-C ,  3-C ) :   1.3951 B(  2-C ,  9-Cl) :   1.0704 B(  3-C ,  4-C ) :   1.3951
B(  3-C ,  7-C ) :   1.1572 B(  4-C ,  5-C ) :   1.3646 B(  4-C ,  6-Cl) :   1.0704
B(  5-C , 12-H ) :   0.9692 B(  7-C ,  8-N ) :   2.9743

Dispersion correction           -0.019278109
FINAL SINGLE POINT ENERGY     -1242.358295757857

DIPOLE MOMENT
-------------

Method             : SCF
Type of density    : Electron Density
Multiplicity       :   1
Irrep              :   0
Energy             : -1242.3791785635762608 Eh
Relativity type    :
Basis              : AO
                                X                 Y                 Z
Electronic contribution:      0.000006464       6.994872004       0.000018351
Nuclear contribution   :     -0.000033114      -8.949508788      -0.000002898
                        -----------------------------------------
Total Dipole Moment    :     -0.000026650      -1.954636784       0.000015453
                        -----------------------------------------
Magnitude (a.u.)       :      1.954636784
Magnitude (Debye)      :      4.968291869

Rotational constants in cm-1:             0.048851             0.028341             0.017935
Rotational constants in MHz :          1464.503210           849.636783           537.692534

                             ****ORCA TERMINATED NORMALLY****
TOTAL RUN TIME: 0 days 0 hours 0 minutes 8 seconds 753 msec
