                         Program Version 6.0.0  -   RELEASE  -
|  1> ! r2scan-3c def2/J RI DEFGRID2 scfconv6 printgap
|  2> %output
|  3>     printlevel normal
|  4> end
|  5> * xyz 0 1
|  6> C -1.2568075796 -0.7367473321 -0.1281897377
|  7> C -0.0024190544 -0.0191627722 0.3683031682
|  8> C 1.2631573181 -0.7081388717 -0.1323032188
|  9> O 0.0441775332 1.3256641844 -0.0874978747
| 10> H -1.2890751659 -0.7108260866 -1.2148916202
| 11> H -1.2434882545 -1.7717028172 0.2000035756
| 12> H -2.1540897016 -0.2611227034 0.2615459085
| 13> H 0.0028109258 -0.0203538118 1.4716201046
| 14> H 1.2629281793 -0.7274602517 -1.2189255781
| 15> H 1.3125550167 -1.7236053181 0.2477091112
| 16> H 2.1371387964 -0.1557849158 0.201960111
| 17> H -0.7768640968 1.7738860623 0.1551848555
| 18> *
| 19>
| 20>                          ****END OF INPUT****

CARTESIAN COORDINATES (ANGSTROEM)
---------------------------------
  C     -1.256808   -0.736747   -0.128190
  C     -0.002419   -0.019163    0.368303
  C      1.263157   -0.708139   -0.132303
  O      0.044178    1.325664   -0.087498
  H     -1.289075   -0.710826   -1.214892
  H     -1.243488   -1.771703    0.200004
  H     -2.154090   -0.261123    0.261546
  H      0.002811   -0.020354    1.471620
  H      1.262928   -0.727460   -1.218926
  H      1.312555   -1.723605    0.247709
  H      2.137139   -0.155785    0.201960
  H     -0.776864    1.773886    0.155185

 Total Charge           Charge          ....    0
 Multiplicity           Mult            ....    1
 Number of Electrons    NEL             ....   34
 Basis Dimension        Dim             ....  121

ORBITAL ENERGIES
----------------

  NO   OCC          E(Eh)            E(eV)
   0   2.0000     -18.943421      -515.4767
   1   2.0000     -10.082149      -274.3492
   2   2.0000     -10.020468      -272.6708
   3   2.0000     -10.015361      -272.5318
   4   2.0000      -0.981125       -26.6978
   5   2.0000      -0.737334       -20.0639
   6   2.0000      -0.657339       -17.8871
   7   2.0000      -0.554337       -15.0843
   8   2.0000      -0.477683       -12.9984
   9   2.0000      -0.421711       -11.4753
  10   2.0000      -0.402837       -10.9618
  11   2.0000      -0.360018        -9.7966
  12   2.0000      -0.352814        -9.6006
  13   2.0000      -0.336079        -9.1452
  14   2.0000      -0.324106        -8.8194
  15   2.0000      -0.288203        -7.8424
  16   2.0000      -0.233818        -6.3625
  17   0.0000       0.063740         1.7345
  18   0.0000       0.114271         3.1095
  19   0.0000       0.133793         3.6407
  20   0.0000       0.139509         3.7962
  21   0.0000       0.149041         4.0556

MULLIKEN ATOMIC CHARGES
-----------------------
   0 C :   -0.461051
   1 C :    0.054966
   2 C :   -0.457092
   3 O :   -0.418798
   4 H :    0.158092
   5 H :    0.141566
   6 H :    0.134668
   7 H :    0.122206
   8 H :    0.148818
   9 H :    0.136893
  10 H :    0.154494
  11 H :    0.285238
Sum of atomic charges:    0.0000000

LOEWDIN ATOMIC CHARGES
----------------------
   0 C :   -0.405104
   1 C :    0.037895
   2 C :   -0.386640
   3 O :   -0.617587
   4 H :    0.160696
   5 H :    0.158075
   6 H :    0.150607
   7 H :    0.156107
   8 H :    0.159992
   9 H :    0.155729
  10 H :    0.162640
  11 H :    0.267590

  Mayer bond orders larger than 0.100000
B(  0-C ,  1-C ) :   0.9327 B(  0-C ,  4-H ) :   0.9796 B(  0-C ,  5-H ) :   0.9686
B(  0-C ,  6-H ) :   0.9677 B(  1-C ,  2-C ) :   0.9537 B(  1-C ,  3-O ) :   0.8846
B(  1-C ,  7-H ) :   0.9457 B(  2-C ,  8-H ) :   0.9782 B(  2-C ,  9-H ) :   0.9703
B(  2-C , 10-H ) :   0.9664 B(  3-O , 11-H ) :   0.9020

Dispersion correction           -0.002137489
FINAL SINGLE POINT ENERGY      -194.305276325564

DIPOLE MOMENT
-------------

Method             : SCF
Type of density    : Electron Density
Multiplicity       :   1
Irrep              :   0
Energy             :  -194.3099632058176098 Eh
Relativity type    :
Basis              : AO
                                X                 Y                 Z
Electronic contribution:      0.244375708       3.073187437       0.185861502
Nuclear contribution   :     -0.701174038      -3.354844408       0.096461250
                        -----------------------------------------
Total Dipole Moment    :     -0.456798330      -0.281656971       0.282322752
                        -----------------------------------------
Magnitude (a.u.)       :      0.606383954
Magnitude (Debye)      :      1.541305523

Rotational constants in cm-1:             0.287229             0.271224             0.159312
Rotational constants in MHz :          8610.915332          8131.090276          4776.065282

                             ****ORCA TERMINATED NORMALLY****
TOTAL RUN TIME: 0 days 0 hours 0 minutes 12 seconds 276 msec
