                         Program Version 6.0.0  -   RELEASE  -
|  1> ! r2scan-3c def2/J RI DEFGRID2 scfconv6 printgap
|  2> %output
|  3>     printlevel normal
|  4> end
|  5> %cpcm
|  6>     smd true
|  7>     smdsolvent "water"
|  8> end
|  9> * xyz 0 1
| 10> C -1.2568075796 -0.7367473321 -0.1281897377
| 11> C -0.0024190544 -0.0191627722 0.3683031682
| 12> C 1.2631573181 -0.7081388717 -0.1323032188
| 13> O 0.0441775332 1.3256641844 -0.0874978747
| 14> H -1.2890751659 -0.7108260866 -1.2148916202
| 15> H -1.2434882545 -1.7717028172 0.2000035756
| 16> H -2.1540897016 -0.2611227034 0.2615459085
| 17> H 0.0028109258 -0.0203538118 1.4716201046
| 18> H 1.2629281793 -0.7274602517 -1.2189255781
| 19> H 1.3125550167 -1.7236053181 0.2477091112
| 20> H 2.1371387964 -0.1557849158 0.201960111
| 21> H -0.7768640968 1.7738860623 0.1551848555
| 22> *
| 23>
| 24>                          ****END OF INPUT****

CARTESIAN COORDINATES (ANGSTROEM)
---------------------------------
  C     -1.256808   -0.736747   -0.128190
  C     -0.002419   -0.019163    0.368303
  C      1.263157   -0.708139   -0.132303
  O      0.044178    1.325664   -0.087498
  H     -1.289075   -0.710826   -1.214892
  H     -1.243488   -1.771703    0.200004
  H     -2.154090   -0.261123    0.261546
  H      0.002811   -0.020354    1.471620
  H      1.262928   -0.727460   -1.218926
  H      1.312555   -1.723605    0.247709
  H      2.137139   -0.155785    0.201960
  H     -0.776864    1.773886    0.155185

 Total Charge           Charge          ....    0
 Multiplicity           Mult            ....    1
 Number of Electrons    NEL             ....   34
 Basis Dimension        Dim             ....  121

ORBITAL ENERGIES
----------------

  NO   OCC          E(Eh)            E(eV)
   0   2.0000     -18.947917      -515.5990
   1   2.0000     -10.077324      -274.2179
   2   2.0000     -10.010214      -272.3918
   3   2.0000     -10.009647      -272.3763
   4   2.0000      -0.984387       -26.7865
   5   2.0000      -0.731671       -19.9098
   6   2.0000      -0.650093       -17.6899
   7   2.0000      -0.550591       -14.9823
   8   2.0000      -0.474522       -12.9124
   9   2.0000      -0.416568       -11.3354
  10   2.0000      -0.398375       -10.8403
  11   2.0000      -0.352487        -9.5916
  12   2.0000      -0.347777        -9.4635
  13   2.0000      -0.333495        -9.0749
  14   2.0000      -0.319729        -8.7003
  15   2.0000      -0.287932        -7.8350
  16   2.0000      -0.238727        -6.4961
  17   0.0000       0.079969         2.1761
  18   0.0000       0.123170         3.3516
  19   0.0000       0.142116         3.8672
  20   0.0000       0.146065         3.9746
  21   0.0000       0.158326         4.3083

MULLIKEN ATOMIC CHARGES
-----------------------
   0 C :   -0.503320
   1 C :    0.079958
   2 C :   -0.502878
   3 O :   -0.509391
   4 H :    0.160767
   5 H :    0.159425
   6 H :    0.159202
   7 H :    0.135057
   8 H :    0.159235
   9 H :    0.161263
  10 H :    0.159171
  11 H :    0.341512
Sum of atomic charges:    0.0000000

LOEWDIN ATOMIC CHARGES
----------------------
   0 C :   -0.408720
   1 C :    0.040325
   2 C :   -0.396874
   3 O :   -0.655412
   4 H :    0.160689
   5 H :    0.164252
   6 H :    0.158973
   7 H :    0.163400
   8 H :    0.160826
   9 H :    0.164730
  10 H :    0.161552
  11 H :    0.286258

  Mayer bond orders larger than 0.100000
B(  0-C ,  1-C ) :   0.9379 B(  0-C ,  4-H ) :   0.9763 B(  0-C ,  5-H ) :   0.9650
B(  0-C ,  6-H ) :   0.9634 B(  1-C ,  2-C ) :   0.9425 B(  1-C ,  3-O ) :   0.8690
B(  1-C ,  7-H ) :   0.9429 B(  2-C ,  8-H ) :   0.9754 B(  2-C ,  9-H ) :   0.9654
B(  2-C , 10-H ) :   0.9652 B(  3-O , 11-H ) :   0.8758

Dispersion correction           -0.002137489
FINAL SINGLE POINT ENERGY      -194.312148662378

DIPOLE MOMENT
-------------

Method             : SCF
Type of density    : Electron Density
Multiplicity       :   1
Irrep              :   0
Energy             :  -194.3168355426318783 Eh
Relativity type    :
Basis              : AO
                                X                 Y                 Z
Electronic contribution:      0.034902126       2.947162253       0.334857190
Nuclear contribution   :     -0.701174038      -3.354844408       0.096461250
                        -----------------------------------------
Total Dipole Moment    :     -0.666271912      -0.407682155       0.431318440
                        -----------------------------------------
Magnitude (a.u.)       :      0.892277198
Magnitude (Debye)      :      2.267988396

Rotational constants in cm-1:             0.287229             0.271224             0.159312
Rotational constants in MHz :          8610.915332          8131.090276          4776.065282

                             ****ORCA TERMINATED NORMALLY****
TOTAL RUN TIME: 0 days 0 hours 0 minutes 14 seconds 72 msec
