                         Program Version 6.0.0  -   RELEASE  -
|  1> ! pbe def2-sv(p) def2/J RI DEFGRID1 loosescf d4 GCP(DFT/SV(P)) printgap
|  2> %output
|  3>     printlevel normal
|  4> end
|  5> * xyz 0 1
|  6> C -2.5168057101 1.1355966151 1.130356659
|  7> C -1.5049358789 0.5149728043 0.2203796678
|  8> C -0.7206551965 1.1881843558 -0.611663722
|  9> C 0.2896317889 0.4492291005 -1.4265662731
| 10> C 1.0666893312 -0.5255010394 -0.5145752
| 11> H 1.6910881124 -1.1507728471 -1.1594781788
| 12> C 0.0975298026 -1.4404747982 0.2556887528
| 13> C -1.374201844 -0.9896027754 0.2294570579
| 14> H -1.8851215085 -1.4070005067 1.1125850465
| 15> O -1.9598282442 -1.5667451256 -0.9374045965
| 16> C 1.9925155127 0.2698716268 0.3801403268
| 17> C 1.6245371362 0.8003996947 1.5355423241
| 18> C 3.3808234143 0.4439200906 -0.1595344502
| 19> H -2.2791898571 0.9003011093 2.1678482243
| 20> H -3.5142473374 0.7482552509 0.9260425274
| 21> H -2.5272081256 2.2152704706 1.0094204851
| 22> H -0.768400203 2.2640959715 -0.6893647036
| 23> H -0.214566254 -0.1368958461 -2.1988635989
| 24> H 0.9799864805 1.1392338569 -1.9114509359
| 25> H 0.1105692232 -2.4394055525 -0.183245166
| 26> H 0.4215444226 -1.5245696887 1.2923339277
| 27> H -2.8693075557 -1.2537717226 -1.0239938177
| 28> H 2.3103492243 1.3802520665 2.1305902303
| 29> H 0.6311213232 0.690389346 1.9327122178
| 30> H 3.8831430881 -0.5215953662 -0.2101012717
| 31> H 3.3473105007 0.8521051275 -1.1684402891
| 32> H 3.9658427638 1.1089970219 0.4694643448
| 33> *
| 34>
| 35>                          ****END OF INPUT****

CARTESIAN COORDINATES (ANGSTROEM)
---------------------------------
  C     -2.516806    1.135597    1.130357
  C     -1.504936    0.514973    0.220380
  C     -0.720655    1.188184   -0.611664
  C      0.289632    0.449229   -1.426566
  C      1.066689   -0.525501   -0.514575
  H      1.691088   -1.150773   -1.159478
  C      0.097530   -1.440475    0.255689
  C     -1.374202   -0.989603    0.229457
  H     -1.885122   -1.407001    1.112585
  O     -1.959828   -1.566745   -0.937405
  C      1.992516    0.269872    0.380140
  C      1.624537    0.800400    1.535542
  C      3.380823    0.443920   -0.159534
  H     -2.279190    0.900301    2.167848
  H     -3.514247    0.748255    0.926043
  H     -2.527208    2.215270    1.009420
  H     -0.768400    2.264096   -0.689365
  H     -0.214566   -0.136896   -2.198864
  H      0.979986    1.139234   -1.911451
  H      0.110569   -2.439406   -0.183245
  H      0.421544   -1.524570    1.292334
  H     -2.869308   -1.253772   -1.023994
  H      2.310349    1.380252    2.130590
  H      0.631121    0.690389    1.932712
  H      3.883143   -0.521595   -0.210101
  H      3.347311    0.852105   -1.168440
  H      3.965843    1.108997    0.469464

 Total Charge           Charge          ....    0
 Multiplicity           Mult            ....    1
 Number of Electrons    NEL             ....   84
 Basis Dimension        Dim             ....  186

ORBITAL ENERGIES
----------------

  NO   OCC          E(Eh)            E(eV)
   0   2.0000     -18.740443      -509.9534
   1   2.0000      -9.935875      -270.3689
   2   2.0000      -9.894795      -269.2511
   3   2.0000      -9.891649      -269.1655
   4   2.0000      -9.886540      -269.0264
   5   2.0000      -9.883761      -268.9508
   6   2.0000      -9.882895      -268.9272
   7   2.0000      -9.879339      -268.8305
   8   2.0000      -9.878993      -268.8211
   9   2.0000      -9.876631      -268.7568
  10   2.0000      -9.862765      -268.3795
  11   2.0000      -0.916662       -24.9436
  12   2.0000      -0.761817       -20.7301
  13   2.0000      -0.716761       -19.5040
  14   2.0000      -0.673987       -18.3401
  15   2.0000      -0.658159       -17.9094
  16   2.0000      -0.609541       -16.5865
  17   2.0000      -0.607464       -16.5299
  18   2.0000      -0.548084       -14.9141
  19   2.0000      -0.530994       -14.4491
  20   2.0000      -0.479894       -13.0586
  21   2.0000      -0.467735       -12.7277
  22   2.0000      -0.439303       -11.9540
  23   2.0000      -0.424214       -11.5434
  24   2.0000      -0.397903       -10.8275
  25   2.0000      -0.391887       -10.6638
  26   2.0000      -0.378548       -10.3008
  27   2.0000      -0.374921       -10.2021
  28   2.0000      -0.371575       -10.1111
  29   2.0000      -0.353551        -9.6206
  30   2.0000      -0.348518        -9.4836
  31   2.0000      -0.343781        -9.3547
  32   2.0000      -0.333248        -9.0681
  33   2.0000      -0.327729        -8.9180
  34   2.0000      -0.313088        -8.5195
  35   2.0000      -0.301812        -8.2127
  36   2.0000      -0.284853        -7.7513
  37   2.0000      -0.276043        -7.5115
  38   2.0000      -0.256065        -6.9679
  39   2.0000      -0.216427        -5.8893
  40   2.0000      -0.209724        -5.7069
  41   2.0000      -0.201231        -5.4758
  42   0.0000      -0.022310        -0.6071
  43   0.0000      -0.003406        -0.0927
  44   0.0000       0.024470         0.6659
  45   0.0000       0.043965         1.1963
  46   0.0000       0.061022         1.6605

MULLIKEN ATOMIC CHARGES
-----------------------
   0 C :   -0.199608
   1 C :   -0.056583
   2 C :   -0.262617
   3 C :    0.080715
   4 C :   -0.192906
   5 H :    0.055017
   6 C :   -0.019658
   7 C :    0.043134
   8 H :    0.040700
   9 O :   -0.427855
  10 C :   -0.073960
  11 C :   -0.226819
  12 C :   -0.216507
  13 H :    0.109992
  14 H :    0.096034
  15 H :    0.099139
  16 H :    0.040699
  17 H :    0.089824
  18 H :    0.075195
  19 H :    0.077558
  20 H :    0.091167
  21 H :    0.294498
  22 H :    0.076733
  23 H :    0.095230
  24 H :    0.109760
  25 H :    0.105755
  26 H :    0.095363
Sum of atomic charges:   -0.0000000

LOEWDIN ATOMIC CHARGES
----------------------
   0 C :   -0.322631
   1 C :   -0.095268
   2 C :   -0.128248
   3 C :   -0.207099
   4 C :   -0.123849
   5 H :    0.119364
   6 C :   -0.211789
   7 C :   -0.033643
   8 H :    0.096133
   9 O :   -0.330284
  10 C :   -0.050454
  11 C :   -0.272161
  12 C :   -0.321722
  13 H :    0.126593
  14 H :    0.120831
  15 H :    0.124958
  16 H :    0.116183
  17 H :    0.131152
  18 H :    0.117903
  19 H :    0.129314
  20 H :    0.125139
  21 H :    0.281639
  22 H :    0.115971
  23 H :    0.117066
  24 H :    0.128498
  25 H :    0.124547
  26 H :    0.121856

  Mayer bond orders larger than 0.100000
B(  0-C ,  1-C ) :   1.1354 B(  0-C , 13-H ) :   0.9258 B(  0-C , 14-H ) :   0.9308
B(  0-C , 15-H ) :   0.9418 B(  1-C ,  2-C ) :   1.8536 B(  1-C ,  7-C ) :   1.0281
B(  2-C ,  3-C ) :   1.0640 B(  2-C , 16-H ) :   0.9448 B(  3-C ,  4-C ) :   1.1075
B(  3-C , 17-H ) :   0.8455 B(  3-C , 18-H ) :   0.9057 B(  4-C ,  5-H ) :   0.8768
B(  4-C ,  6-C ) :   1.0812 B(  4-C , 10-C ) :   0.9929 B(  6-C ,  7-C ) :   1.0860
B(  6-C , 19-H ) :   0.8727 B(  6-C , 20-H ) :   0.9087 B(  7-C ,  8-H ) :   0.8985
B(  7-C ,  9-O ) :   1.0076 B(  9-O , 21-H ) :   0.8521 B( 10-C , 11-C ) :   2.0636
B( 10-C , 12-C ) :   1.1241 B( 11-C , 22-H ) :   0.9010 B( 11-C , 23-H ) :   0.8895
B( 12-C , 24-H ) :   0.9278 B( 12-C , 25-H ) :   0.9288 B( 12-C , 26-H ) :   0.9415

Dispersion correction           -0.029913059
FINAL SINGLE POINT ENERGY      -464.783578587686

DIPOLE MOMENT
-------------

Method             : SCF
Type of density    : Electron Density
Multiplicity       :   1
Irrep              :   0
Energy             :  -464.8718908941206109 Eh
Relativity type    :
Basis              : AO
                                X                 Y                 Z
Electronic contribution:     -3.355218524      -2.418535212      -2.225257364
Nuclear contribution   :      3.050858512       2.664509815       2.327818527
                        -----------------------------------------
Total Dipole Moment    :     -0.304360012       0.245974603       0.102561163
                        -----------------------------------------
Magnitude (a.u.)       :      0.404545812
Magnitude (Debye)      :      1.028273737

Rotational constants in cm-1:             0.060697             0.027303             0.024065
Rotational constants in MHz :          1819.639281           818.533610           721.449612

                             ****ORCA TERMINATED NORMALLY****
TOTAL RUN TIME: 0 days 0 hours 0 minutes 12 seconds 544 msec
