                         Program Version 6.0.0  -   RELEASE  -
|  1> ! r2scan-3c def2/J RI DEFGRID2 scfconv6 printgap
|  2> %output
|  3>     printlevel normal
|  4> end
|  5> %cpcm
|  6>     smd true
|  7>     smdsolvent "water"
|  8> end
|  9> * xyz 0 1
| 10> C 1.2269027684 1.4456118049 -0.347926119
| 11> C 0.7163561786 0.0089788168 -0.4263196523
| 12> C 1.5289179405 -0.9038432984 0.5019730424
| 13> C -0.7338116474 -0.0770446466 0.0156145827
| 14> O -1.1871239051 0.6293000563 0.8941395922
| 15> C -1.5576552298 -1.1109358552 -0.6926019872
| 16> H 0.6885713764 2.0796520458 -1.048757574
| 17> H 1.0712464137 1.8388260555 0.6542008268
| 18> H 2.2869817913 1.4841150392 -0.5822948807
| 19> H 0.801240345 -0.3614475879 -1.4508982145
| 20> H 2.5791945606 -0.8664354821 0.2262538236
| 21> H 1.1870670625 -1.9334821206 0.4351259471
| 22> H 1.4263039989 -0.5704616003 1.5324488853
| 23> H -1.0118560317 -2.0475059279 -0.7612879452
| 24> H -1.7499019905 -0.7597142474 -1.7046970207
| 25> H -2.5048002247 -1.2592358385 -0.1814645476
| 26> *
| 27>
| 28>                          ****END OF INPUT****

CARTESIAN COORDINATES (ANGSTROEM)
---------------------------------
  C      1.226903    1.445612   -0.347926
  C      0.716356    0.008979   -0.426320
  C      1.528918   -0.903843    0.501973
  C     -0.733812   -0.077045    0.015615
  O     -1.187124    0.629300    0.894140
  C     -1.557655   -1.110936   -0.692602
  H      0.688571    2.079652   -1.048758
  H      1.071246    1.838826    0.654201
  H      2.286982    1.484115   -0.582295
  H      0.801240   -0.361448   -1.450898
  H      2.579195   -0.866435    0.226254
  H      1.187067   -1.933482    0.435126
  H      1.426304   -0.570462    1.532449
  H     -1.011856   -2.047506   -0.761288
  H     -1.749902   -0.759714   -1.704697
  H     -2.504800   -1.259236   -0.181465

 Total Charge           Charge          ....    0
 Multiplicity           Mult            ....    1
 Number of Electrons    NEL             ....   48
 Basis Dimension        Dim             ....  169

ORBITAL ENERGIES
----------------

  NO   OCC          E(Eh)            E(eV)
   0   2.0000     -18.946344      -515.5562
   1   2.0000     -10.122346      -275.4430
   2   2.0000     -10.037424      -273.1322
   3   2.0000     -10.022365      -272.7224
   4   2.0000     -10.019536      -272.6454
   5   2.0000     -10.012725      -272.4601
   6   2.0000      -1.015210       -27.6253
   7   2.0000      -0.769873       -20.9493
   8   2.0000      -0.703510       -19.1435
   9   2.0000      -0.649160       -17.6645
  10   2.0000      -0.581608       -15.8264
  11   2.0000      -0.486751       -13.2452
  12   2.0000      -0.446564       -12.1516
  13   2.0000      -0.423512       -11.5243
  14   2.0000      -0.418079       -11.3765
  15   2.0000      -0.391834       -10.6624
  16   2.0000      -0.372674       -10.1410
  17   2.0000      -0.360381        -9.8065
  18   2.0000      -0.352471        -9.5912
  19   2.0000      -0.330606        -8.9962
  20   2.0000      -0.323135        -8.7930
  21   2.0000      -0.304594        -8.2884
  22   2.0000      -0.301915        -8.2155
  23   2.0000      -0.221891        -6.0380
  24   0.0000      -0.047063        -1.2806
  25   0.0000       0.076944         2.0938
  26   0.0000       0.126518         3.4427
  27   0.0000       0.134972         3.6728
  28   0.0000       0.137407         3.7390

MULLIKEN ATOMIC CHARGES
-----------------------
   0 C :   -0.543300
   1 C :   -0.006586
   2 C :   -0.522431
   3 C :    0.327809
   4 O :   -0.463359
   5 C :   -0.538604
   6 H :    0.165687
   7 H :    0.164637
   8 H :    0.164578
   9 H :    0.175678
  10 H :    0.171234
  11 H :    0.166096
  12 H :    0.172957
  13 H :    0.184569
  14 H :    0.202720
  15 H :    0.178314
Sum of atomic charges:    0.0000000

LOEWDIN ATOMIC CHARGES
----------------------
   0 C :   -0.403811
   1 C :   -0.219621
   2 C :   -0.390638
   3 C :    0.239755
   4 O :   -0.542334
   5 C :   -0.380731
   6 H :    0.161151
   7 H :    0.164615
   8 H :    0.160101
   9 H :    0.174849
  10 H :    0.163306
  11 H :    0.162564
  12 H :    0.162638
  13 H :    0.183620
  14 H :    0.191413
  15 H :    0.173125

  Mayer bond orders larger than 0.100000
B(  0-C ,  1-C ) :   0.8894 B(  0-C ,  6-H ) :   0.9738 B(  0-C ,  7-H ) :   0.9769
B(  0-C ,  8-H ) :   0.9720 B(  1-C ,  2-C ) :   0.8810 B(  1-C ,  3-C ) :   0.8792
B(  1-C ,  9-H ) :   0.9310 B(  2-C , 10-H ) :   0.9646 B(  2-C , 11-H ) :   0.9615
B(  2-C , 12-H ) :   0.9800 B(  3-C ,  4-O ) :   1.8636 B(  3-C ,  5-C ) :   0.9373
B(  5-C , 13-H ) :   0.9304 B(  5-C , 14-H ) :   0.9330 B(  5-C , 15-H ) :   0.9855

Dispersion correction           -0.003911905
FINAL SINGLE POINT ENERGY      -271.711333338232

DIPOLE MOMENT
-------------

Method             : SCF
Type of density    : Electron Density
Multiplicity       :   1
Irrep              :   0
Energy             :  -271.7149316271112411 Eh
Relativity type    :
Basis              : AO
                                X                 Y                 Z
Electronic contribution:     -3.765691193       1.223171212       1.472804492
Nuclear contribution   :      4.461237976      -2.238219042      -2.689939890
                        -----------------------------------------
Total Dipole Moment    :      0.695546783      -1.015047831      -1.217135398
                        -----------------------------------------
Magnitude (a.u.)       :      1.730758794
Magnitude (Debye)      :      4.399239241

Rotational constants in cm-1:             0.159531             0.093537             0.077609
Rotational constants in MHz :          4782.618590          2804.173898          2326.668605

                             ****ORCA TERMINATED NORMALLY****
TOTAL RUN TIME: 0 days 0 hours 0 minutes 22 seconds 975 msec
