                         Program Version 6.0.0  -   RELEASE  -
|  1> ! wb97x-v def2-tzvp def2/J RIJCOSX DEFGRID2 scfconv7 GCP(DFT/TZ) printgap
|  2> %output
|  3>     printlevel normal
|  4> end
|  5> * xyz 0 1
|  6> C -2.1752891930762353 0.007767411001350187 6.2156467975772424e-06
|  7> C -0.879219094811233 0.8153321506977462 2.6155765835128704e-05
|  8> C 0.43177451865207794 0.0005556884842006354 -3.761158405045618e-07
|  9> C 1.6048591597716788 0.9886336503337041 2.1697975964673744e-05
| 10> C 0.5222436526366074 -0.8805684269558908 -1.2519285243149305
| 11> C 0.5222551087769752 -0.8806555113050898 1.2518604027410019
| 12> H -2.2576530539259982 -0.6308534605490927 0.8855332773077993
| 13> H -3.0410570478873273 0.678480334172981 -0.0003370550066061487
| 14> H -2.257320880123269 -0.6313280078575885 -0.8852096685211283
| 15> H -0.8684292465503639 1.4740923261553305 0.8793911895189468
| 16> H -0.8684205766370207 1.4741343183980322 -0.8793059994173225
| 17> H 1.5755731975452254 1.6334649301512851 -0.8864679887940429
| 18> H 2.563807378845147 0.4576251952914427 -3.727685668892025e-05
| 19> H 1.575624488019678 1.6333667936887566 0.8865838189602512
| 20> H 0.40956391908292533 -0.28088649119352266 -2.163225035614007
| 21> H 1.495121671048058 -1.3836757946502773 -1.2970964902456925
| 22> H -0.2514974292802759 -1.655229089627932 -1.2575177088063612
| 23> H 1.4949775713476718 -1.384085570191049 1.2967841531427553
| 24> H -0.25174268144074324 -1.6550581812802623 1.2575790226319725
| 25> H 0.4099754513647483 -0.2809807474034732 2.1632095000445855
| 26> *
| 27>
| 28>                          ****END OF INPUT****

CARTESIAN COORDINATES (ANGSTROEM)
---------------------------------
  C     -2.175289    0.007767    0.000006
  C     -0.879219    0.815332    0.000026
  C      0.431775    0.000556   -0.000000
  C      1.604859    0.988634    0.000022
  C      0.522244   -0.880568   -1.251929
  C      0.522255   -0.880656    1.251860
  H     -2.257653   -0.630853    0.885533
  H     -3.041057    0.678480   -0.000337
  H     -2.257321   -0.631328   -0.885210
  H     -0.868429    1.474092    0.879391
  H     -0.868421    1.474134   -0.879306
  H      1.575573    1.633465   -0.886468
  H      2.563807    0.457625   -0.000037
  H      1.575624    1.633367    0.886584
  H      0.409564   -0.280886   -2.163225
  H      1.495122   -1.383676   -1.297096
  H     -0.251497   -1.655229   -1.257518
  H      1.494978   -1.384086    1.296784
  H     -0.251743   -1.655058    1.257579
  H      0.409975   -0.280981    2.163210

 Total Charge           Charge          ....    0
 Multiplicity           Mult            ....    1
 Number of Electrons    NEL             ....   50
 Basis Dimension        Dim             ....  270

ORBITAL ENERGIES
----------------

  NO   OCC          E(Eh)            E(eV)
   0   2.0000     -12.053095      -327.9814
   1   2.0000     -12.036754      -327.5367
   2   2.0000     -12.030890      -327.3772
   3   2.0000     -12.029348      -327.3352
   4   2.0000     -12.029302      -327.3340
   5   2.0000     -12.028821      -327.3209
   6   2.0000      -1.332033       -36.2464
   7   2.0000      -1.236976       -33.6598
   8   2.0000      -1.173832       -31.9416
   9   2.0000      -1.173522       -31.9331
  10   2.0000      -1.106310       -30.1042
  11   2.0000      -0.996085       -27.1048
  12   2.0000      -0.889795       -24.2126
  13   2.0000      -0.887045       -24.1377
  14   2.0000      -0.874061       -23.7844
  15   2.0000      -0.845401       -23.0045
  16   2.0000      -0.825126       -22.4528
  17   2.0000      -0.807153       -21.9638
  18   2.0000      -0.804165       -21.8824
  19   2.0000      -0.793400       -21.5895
  20   2.0000      -0.790718       -21.5165
  21   2.0000      -0.772399       -21.0181
  22   2.0000      -0.761047       -20.7091
  23   2.0000      -0.749589       -20.3973
  24   2.0000      -0.745354       -20.2821
  25   0.0000      -0.035998        -0.9796
  26   0.0000      -0.028822        -0.7843
  27   0.0000      -0.017280        -0.4702
  28   0.0000      -0.017230        -0.4689
  29   0.0000      -0.006109        -0.1662

MULLIKEN ATOMIC CHARGES
-----------------------
   0 C :   -0.374218
   1 C :   -0.160743
   2 C :    0.108989
   3 C :   -0.341757
   4 C :   -0.378535
   5 C :   -0.378518
   6 H :    0.112307
   7 H :    0.116614
   8 H :    0.112300
   9 H :    0.091960
  10 H :    0.091966
  11 H :    0.108760
  12 H :    0.109444
  13 H :    0.108762
  14 H :    0.110569
  15 H :    0.110763
  16 H :    0.115004
  17 H :    0.110760
  18 H :    0.115009
  19 H :    0.110565
Sum of atomic charges:   -0.0000000

LOEWDIN ATOMIC CHARGES
----------------------
   0 C :   -0.305029
   1 C :   -0.249437
   2 C :   -0.365729
   3 C :   -0.260529
   4 C :   -0.259386
   5 C :   -0.259381
   6 H :    0.115914
   7 H :    0.117223
   8 H :    0.115917
   9 H :    0.135386
  10 H :    0.135385
  11 H :    0.119864
  12 H :    0.119213
  13 H :    0.119863
  14 H :    0.120985
  15 H :    0.120848
  16 H :    0.118529
  17 H :    0.120848
  18 H :    0.118532
  19 H :    0.120984

  Mayer bond orders larger than 0.100000
B(  0-C ,  1-C ) :   0.9664 B(  0-C ,  6-H ) :   0.9834 B(  0-C ,  7-H ) :   0.9843
B(  0-C ,  8-H ) :   0.9835 B(  1-C ,  2-C ) :   0.9588 B(  1-C ,  9-H ) :   0.9750
B(  1-C , 10-H ) :   0.9750 B(  2-C ,  3-C ) :   0.9768 B(  2-C ,  4-C ) :   0.9705
B(  2-C ,  5-C ) :   0.9705 B(  3-C , 11-H ) :   0.9775 B(  3-C , 12-H ) :   0.9808
B(  3-C , 13-H ) :   0.9775 B(  4-C , 14-H ) :   0.9775 B(  4-C , 15-H ) :   0.9794
B(  4-C , 16-H ) :   0.9810 B(  5-C , 17-H ) :   0.9794 B(  5-C , 18-H ) :   0.9810
B(  5-C , 19-H ) :   0.9775

FINAL SINGLE POINT ENERGY      -237.086193013272

DIPOLE MOMENT
-------------

Method             : SCF
Type of density    : Electron Density
Multiplicity       :   1
Irrep              :   0
Energy             :  -237.1008596685719567 Eh
Relativity type    :
Basis              : AO
                                X                 Y                 Z
Electronic contribution:      0.246582219       0.541886838       0.000064470
Nuclear contribution   :     -0.261724813      -0.525712653      -0.000064800
                        -----------------------------------------
Total Dipole Moment    :     -0.015142594       0.016174185      -0.000000330
                        -----------------------------------------
Magnitude (a.u.)       :      0.022156318
Magnitude (Debye)      :      0.056316884

Rotational constants in cm-1:             0.143447             0.083474             0.083166
Rotational constants in MHz :          4300.441918          2502.493943          2493.256870

                             ****ORCA TERMINATED NORMALLY****
TOTAL RUN TIME: 0 days 0 hours 2 minutes 4 seconds 325 msec
