                         Program Version 6.0.0  -   RELEASE  -
|  1> ! wb97x-v def2-tzvp def2/J RIJCOSX DEFGRID2 scfconv7 GCP(DFT/TZ) printgap
|  2> %output
|  3>     printlevel normal
|  4> end
|  5> %cpcm
|  6>     smd true
|  7>     smdsolvent "water"
|  8> end
|  9> * xyz 0 1
| 10> C -2.1752891930762353 0.007767411001350187 6.2156467975772424e-06
| 11> C -0.879219094811233 0.8153321506977462 2.6155765835128704e-05
| 12> C 0.43177451865207794 0.0005556884842006354 -3.761158405045618e-07
| 13> C 1.6048591597716788 0.9886336503337041 2.1697975964673744e-05
| 14> C 0.5222436526366074 -0.8805684269558908 -1.2519285243149305
| 15> C 0.5222551087769752 -0.8806555113050898 1.2518604027410019
| 16> H -2.2576530539259982 -0.6308534605490927 0.8855332773077993
| 17> H -3.0410570478873273 0.678480334172981 -0.0003370550066061487
| 18> H -2.257320880123269 -0.6313280078575885 -0.8852096685211283
| 19> H -0.8684292465503639 1.4740923261553305 0.8793911895189468
| 20> H -0.8684205766370207 1.4741343183980322 -0.8793059994173225
| 21> H 1.5755731975452254 1.6334649301512851 -0.8864679887940429
| 22> H 2.563807378845147 0.4576251952914427 -3.727685668892025e-05
| 23> H 1.575624488019678 1.6333667936887566 0.8865838189602512
| 24> H 0.40956391908292533 -0.28088649119352266 -2.163225035614007
| 25> H 1.495121671048058 -1.3836757946502773 -1.2970964902456925
| 26> H -0.2514974292802759 -1.655229089627932 -1.2575177088063612
| 27> H 1.4949775713476718 -1.384085570191049 1.2967841531427553
| 28> H -0.25174268144074324 -1.6550581812802623 1.2575790226319725
| 29> H 0.4099754513647483 -0.2809807474034732 2.1632095000445855
| 30> *
| 31>
| 32>                          ****END OF INPUT****

CARTESIAN COORDINATES (ANGSTROEM)
---------------------------------
  C     -2.175289    0.007767    0.000006
  C     -0.879219    0.815332    0.000026
  C      0.431775    0.000556   -0.000000
  C      1.604859    0.988634    0.000022
  C      0.522244   -0.880568   -1.251929
  C      0.522255   -0.880656    1.251860
  H     -2.257653   -0.630853    0.885533
  H     -3.041057    0.678480   -0.000337
  H     -2.257321   -0.631328   -0.885210
  H     -0.868429    1.474092    0.879391
  H     -0.868421    1.474134   -0.879306
  H      1.575573    1.633465   -0.886468
  H      2.563807    0.457625   -0.000037
  H      1.575624    1.633367    0.886584
  H      0.409564   -0.280886   -2.163225
  H      1.495122   -1.383676   -1.297096
  H     -0.251497   -1.655229   -1.257518
  H      1.494978   -1.384086    1.296784
  H     -0.251743   -1.655058    1.257579
  H      0.409975   -0.280981    2.163210

 Total Charge           Charge          ....    0
 Multiplicity           Mult            ....    1
 Number of Electrons    NEL             ....   50
 Basis Dimension        Dim             ....  270

ORBITAL ENERGIES
----------------

  NO   OCC          E(Eh)            E(eV)
   0   2.0000     -12.045059      -327.7627
   1   2.0000     -12.027852      -327.2945
   2   2.0000     -12.022205      -327.1408
   3   2.0000     -12.020568      -327.0963
   4   2.0000     -12.020301      -327.0890
   5   2.0000     -12.019868      -327.0772
   6   2.0000      -1.323469       -36.0134
   7   2.0000      -1.228708       -33.4348
   8   2.0000      -1.165485       -31.7145
   9   2.0000      -1.165420       -31.7127
  10   2.0000      -1.098145       -29.8820
  11   2.0000      -0.987983       -26.8844
  12   2.0000      -0.881267       -23.9805
  13   2.0000      -0.878487       -23.9048
  14   2.0000      -0.865716       -23.5573
  15   2.0000      -0.836938       -22.7742
  16   2.0000      -0.816767       -22.2254
  17   2.0000      -0.798770       -21.7356
  18   2.0000      -0.795624       -21.6500
  19   2.0000      -0.785054       -21.3624
  20   2.0000      -0.782213       -21.2851
  21   2.0000      -0.763925       -20.7875
  22   2.0000      -0.752654       -20.4808
  23   2.0000      -0.740962       -20.1626
  24   2.0000      -0.736933       -20.0530
  25   0.0000      -0.026748        -0.7278
  26   0.0000      -0.019686        -0.5357
  27   0.0000      -0.008566        -0.2331
  28   0.0000      -0.008478        -0.2307
  29   0.0000       0.002482         0.0675

MULLIKEN ATOMIC CHARGES
-----------------------
   0 C :   -0.420641
   1 C :   -0.193777
   2 C :    0.164586
   3 C :   -0.409051
   4 C :   -0.439957
   5 C :   -0.439937
   6 H :    0.126316
   7 H :    0.130869
   8 H :    0.126310
   9 H :    0.105181
  10 H :    0.105188
  11 H :    0.124764
  12 H :    0.126438
  13 H :    0.124767
  14 H :    0.125599
  15 H :    0.127144
  16 H :    0.131732
  17 H :    0.127140
  18 H :    0.131734
  19 H :    0.125596
Sum of atomic charges:   -0.0000000

LOEWDIN ATOMIC CHARGES
----------------------
   0 C :   -0.311723
   1 C :   -0.252038
   2 C :   -0.363455
   3 C :   -0.268006
   4 C :   -0.266117
   5 C :   -0.266113
   6 H :    0.118065
   7 H :    0.118467
   8 H :    0.118067
   9 H :    0.137271
  10 H :    0.137271
  11 H :    0.121832
  12 H :    0.121433
  13 H :    0.121831
  14 H :    0.122988
  15 H :    0.122611
  16 H :    0.121010
  17 H :    0.122611
  18 H :    0.121011
  19 H :    0.122987

  Mayer bond orders larger than 0.100000
B(  0-C ,  1-C ) :   0.9644 B(  0-C ,  6-H ) :   0.9804 B(  0-C ,  7-H ) :   0.9821
B(  0-C ,  8-H ) :   0.9805 B(  1-C ,  2-C ) :   0.9520 B(  1-C ,  9-H ) :   0.9760
B(  1-C , 10-H ) :   0.9760 B(  2-C ,  3-C ) :   0.9585 B(  2-C ,  4-C ) :   0.9574
B(  2-C ,  5-C ) :   0.9574 B(  3-C , 11-H ) :   0.9773 B(  3-C , 12-H ) :   0.9797
B(  3-C , 13-H ) :   0.9773 B(  4-C , 14-H ) :   0.9768 B(  4-C , 15-H ) :   0.9788
B(  4-C , 16-H ) :   0.9785 B(  5-C , 17-H ) :   0.9788 B(  5-C , 18-H ) :   0.9785
B(  5-C , 19-H ) :   0.9768

FINAL SINGLE POINT ENERGY      -237.082726927192

DIPOLE MOMENT
-------------

Method             : SCF
Type of density    : Electron Density
Multiplicity       :   1
Irrep              :   0
Energy             :  -237.0973935824920886 Eh
Relativity type    :
Basis              : AO
                                X                 Y                 Z
Electronic contribution:      0.241862702       0.541467879       0.000064560
Nuclear contribution   :     -0.261724813      -0.525712653      -0.000064800
                        -----------------------------------------
Total Dipole Moment    :     -0.019862111       0.015755226      -0.000000240
                        -----------------------------------------
Magnitude (a.u.)       :      0.025352132
Magnitude (Debye)      :      0.064439999

Rotational constants in cm-1:             0.143447             0.083474             0.083166
Rotational constants in MHz :          4300.441918          2502.493943          2493.256870

                             ****ORCA TERMINATED NORMALLY****
TOTAL RUN TIME: 0 days 0 hours 2 minutes 10 seconds 683 msec
