                         Program Version 6.0.0  -   RELEASE  -
|  1> ! pbe def2-sv(p) def2/J RI DEFGRID1 loosescf d4 GCP(DFT/SV(P)) printgap
|  2> %output
|  3>     printlevel normal
|  4> end
|  5> * xyz 0 1
|  6> C -2.9754586152 0.6395042839 -0.7520992183
|  7> C -2.2677574118 0.3600834166 0.575823941
|  8> C -0.8522139996 -0.0802389564 0.3333913157
|  9> C -0.5506848685 -1.4235607084 0.1393801335
| 10> C 0.7478413325 -1.8169778789 -0.1252264127
| 11> C 1.7645611563 -0.8815979627 -0.2028867079
| 12> C 1.4736934945 0.4636284217 -0.0127502585
| 13> C 0.1661761296 0.8556775925 0.2533607085
| 14> O 2.4295528595 1.4327931695 -0.0754548129
| 15> H -2.4541145365 1.4216355185 -1.2989988673
| 16> H -3.9992940057 0.9595052504 -0.5762857426
| 17> H -2.9902692479 -0.2566254783 -1.3680260682
| 18> H -2.8088711654 -0.4195559103 1.1147797323
| 19> H -2.2731159908 1.266265222 1.1837128541
| 20> H -1.3366384438 -2.1614901489 0.199073799
| 21> H 0.9757002967 -2.8621144666 -0.2723423758
| 22> H 2.7778306933 -1.1951861893 -0.4086027421
| 23> H -0.0349390505 1.9064013134 0.3985659155
| 24> H 3.295767842 1.0421955129 -0.2646527831
| 25> *
| 26>
| 27>                          ****END OF INPUT****

CARTESIAN COORDINATES (ANGSTROEM)
---------------------------------
  C     -2.975459    0.639504   -0.752099
  C     -2.267757    0.360083    0.575824
  C     -0.852214   -0.080239    0.333391
  C     -0.550685   -1.423561    0.139380
  C      0.747841   -1.816978   -0.125226
  C      1.764561   -0.881598   -0.202887
  C      1.473693    0.463628   -0.012750
  C      0.166176    0.855678    0.253361
  O      2.429553    1.432793   -0.075455
  H     -2.454115    1.421636   -1.298999
  H     -3.999294    0.959505   -0.576286
  H     -2.990269   -0.256625   -1.368026
  H     -2.808871   -0.419556    1.114780
  H     -2.273116    1.266265    1.183713
  H     -1.336638   -2.161490    0.199074
  H      0.975700   -2.862114   -0.272342
  H      2.777831   -1.195186   -0.408603
  H     -0.034939    1.906401    0.398566
  H      3.295768    1.042196   -0.264653

 Total Charge           Charge          ....    0
 Multiplicity           Mult            ....    1
 Number of Electrons    NEL             ....   66
 Basis Dimension        Dim             ....  146

ORBITAL ENERGIES
----------------

  NO   OCC          E(Eh)            E(eV)
   0   2.0000     -18.778267      -510.9826
   1   2.0000      -9.948573      -270.7144
   2   2.0000      -9.897964      -269.3373
   3   2.0000      -9.890480      -269.1336
   4   2.0000      -9.888289      -269.0740
   5   2.0000      -9.886717      -269.0313
   6   2.0000      -9.880579      -268.8642
   7   2.0000      -9.880000      -268.8485
   8   2.0000      -9.876167      -268.7442
   9   2.0000      -0.959463       -26.1083
  10   2.0000      -0.772796       -21.0288
  11   2.0000      -0.707625       -19.2554
  12   2.0000      -0.664028       -18.0691
  13   2.0000      -0.644635       -17.5414
  14   2.0000      -0.570979       -15.5371
  15   2.0000      -0.544049       -14.8043
  16   2.0000      -0.533433       -14.5155
  17   2.0000      -0.471492       -12.8299
  18   2.0000      -0.443318       -12.0633
  19   2.0000      -0.426742       -11.6123
  20   2.0000      -0.396261       -10.7828
  21   2.0000      -0.383317       -10.4306
  22   2.0000      -0.371190       -10.1006
  23   2.0000      -0.362480        -9.8636
  24   2.0000      -0.345267        -9.3952
  25   2.0000      -0.334304        -9.0969
  26   2.0000      -0.327090        -8.9006
  27   2.0000      -0.305506        -8.3132
  28   2.0000      -0.296957        -8.0806
  29   2.0000      -0.286526        -7.7968
  30   2.0000      -0.283373        -7.7110
  31   2.0000      -0.218894        -5.9564
  32   2.0000      -0.191881        -5.2214
  33   0.0000      -0.030307        -0.8247
  34   0.0000      -0.015391        -0.4188
  35   0.0000       0.024549         0.6680
  36   0.0000       0.045999         1.2517
  37   0.0000       0.062142         1.6910

MULLIKEN ATOMIC CHARGES
-----------------------
   0 C :   -0.269168
   1 C :   -0.132116
   2 C :    0.082003
   3 C :   -0.114818
   4 C :   -0.053124
   5 C :   -0.167287
   6 C :    0.256520
   7 C :   -0.200963
   8 O :   -0.338027
   9 H :    0.103190
  10 H :    0.104965
  11 H :    0.101597
  12 H :    0.086988
  13 H :    0.087830
  14 H :    0.032054
  15 H :    0.048610
  16 H :    0.024977
  17 H :    0.030874
  18 H :    0.315895
Sum of atomic charges:   -0.0000000

LOEWDIN ATOMIC CHARGES
----------------------
   0 C :   -0.332483
   1 C :   -0.215306
   2 C :   -0.028588
   3 C :   -0.149927
   4 C :   -0.114284
   5 C :   -0.183765
   6 C :    0.025221
   7 C :   -0.149858
   8 O :   -0.238249
   9 H :    0.120364
  10 H :    0.118137
  11 H :    0.119648
  12 H :    0.121546
  13 H :    0.121926
  14 H :    0.119337
  15 H :    0.123099
  16 H :    0.118642
  17 H :    0.127430
  18 H :    0.297109

  Mayer bond orders larger than 0.100000
B(  0-C ,  1-C ) :   1.1476 B(  0-C ,  9-H ) :   0.9549 B(  0-C , 10-H ) :   0.9489
B(  0-C , 11-H ) :   0.9548 B(  1-C ,  2-C ) :   1.0624 B(  1-C , 12-H ) :   0.9115
B(  1-C , 13-H ) :   0.9117 B(  2-C ,  3-C ) :   1.3758 B(  2-C ,  7-C ) :   1.3751
B(  3-C ,  4-C ) :   1.3726 B(  3-C , 14-H ) :   0.9641 B(  4-C ,  5-C ) :   1.3641
B(  4-C , 15-H ) :   0.9600 B(  5-C ,  6-C ) :   1.3192 B(  5-C , 16-H ) :   0.9586
B(  6-C ,  7-C ) :   1.3363 B(  6-C ,  8-O ) :   1.1820 B(  7-C , 17-H ) :   0.9660
B(  8-O , 18-H ) :   0.8428

Dispersion correction           -0.018700942
FINAL SINGLE POINT ENERGY      -385.236468199153

DIPOLE MOMENT
-------------

Method             : SCF
Type of density    : Electron Density
Multiplicity       :   1
Irrep              :   0
Energy             :  -385.2956885587150850 Eh
Relativity type    :
Basis              : AO
                                X                 Y                 Z
Electronic contribution:      8.585935733       0.010663075       1.100317090
Nuclear contribution   :     -8.264857843      -0.259249632      -1.213960517
                        -----------------------------------------
Total Dipole Moment    :      0.321077890      -0.248586557      -0.113643428
                        -----------------------------------------
Magnitude (a.u.)       :      0.421664697
Magnitude (Debye)      :      1.071786483

Rotational constants in cm-1:             0.099703             0.038996             0.030136
Rotational constants in MHz :          2989.016372          1169.069961           903.454857

                             ****ORCA TERMINATED NORMALLY****
TOTAL RUN TIME: 0 days 0 hours 0 minutes 8 seconds 961 msec
