                         Program Version 6.0.0  -   RELEASE  -
|  1> ! r2scan-3c def2/J RI DEFGRID2 scfconv6 printgap
|  2> %output
|  3>     printlevel normal
|  4> end
|  5> * xyz 0 1
|  6> C 0.2621757016 -0.5431559339 -0.0002763562
|  7> C 1.3996988529 0.1504817402 0.0001942174
|  8> F 2.6011208038 -0.3700120452 0.0005251443
|  9> F 1.4388850142 1.4622293758 -0.0004888367
| 10> C -1.1069199463 0.1054320705 -6.6814e-05
| 11> F -1.294271363 0.8779461674 1.0779844707
| 12> F -1.2852998695 0.8967458064 -1.0657611715
| 13> F -2.0725296462 -0.8053667426 -0.0118796832
| 14> F 0.2612543517 -1.8799489166 -0.0002857561
| 15> *
| 16>
| 17>                          ****END OF INPUT****

CARTESIAN COORDINATES (ANGSTROEM)
---------------------------------
  C      0.262176   -0.543156   -0.000276
  C      1.399699    0.150482    0.000194
  F      2.601121   -0.370012    0.000525
  F      1.438885    1.462229   -0.000489
  C     -1.106920    0.105432   -0.000067
  F     -1.294271    0.877946    1.077984
  F     -1.285300    0.896746   -1.065761
  F     -2.072530   -0.805367   -0.011880
  F      0.261254   -1.879949   -0.000286

 Total Charge           Charge          ....    0
 Multiplicity           Mult            ....    1
 Number of Electrons    NEL             ....   72
 Basis Dimension        Dim             ....  201

ORBITAL ENERGIES
----------------

  NO   OCC          E(Eh)            E(eV)
   0   2.0000     -24.569041      -668.5576
   1   2.0000     -24.568097      -668.5319
   2   2.0000     -24.543274      -667.8564
   3   2.0000     -24.542495      -667.8352
   4   2.0000     -24.535312      -667.6398
   5   2.0000     -24.535215      -667.6371
   6   2.0000     -10.315238      -280.6919
   7   2.0000     -10.246923      -278.8330
   8   2.0000     -10.167931      -276.6835
   9   2.0000      -1.302430       -35.4409
  10   2.0000      -1.295436       -35.2506
  11   2.0000      -1.238571       -33.7032
  12   2.0000      -1.230832       -33.4926
  13   2.0000      -1.211420       -32.9644
  14   2.0000      -1.205290       -32.7976
  15   2.0000      -0.811377       -22.0787
  16   2.0000      -0.708715       -19.2851
  17   2.0000      -0.641780       -17.4637
  18   2.0000      -0.601950       -16.3799
  19   2.0000      -0.596073       -16.2200
  20   2.0000      -0.578381       -15.7386
  21   2.0000      -0.569860       -15.5067
  22   2.0000      -0.546890       -14.8816
  23   2.0000      -0.529739       -14.4149
  24   2.0000      -0.459795       -12.5117
  25   2.0000      -0.459270       -12.4974
  26   2.0000      -0.449484       -12.2311
  27   2.0000      -0.444730       -12.1017
  28   2.0000      -0.444463       -12.0945
  29   2.0000      -0.436139       -11.8679
  30   2.0000      -0.427085       -11.6216
  31   2.0000      -0.406352       -11.0574
  32   2.0000      -0.405702       -11.0397
  33   2.0000      -0.385973       -10.5029
  34   2.0000      -0.371461       -10.1080
  35   2.0000      -0.262676        -7.1478
  36   0.0000      -0.053944        -1.4679
  37   0.0000      -0.014703        -0.4001
  38   0.0000       0.047892         1.3032
  39   0.0000       0.104794         2.8516
  40   0.0000       0.120896         3.2897

MULLIKEN ATOMIC CHARGES
-----------------------
   0 C :    0.134423
   1 C :    0.421345
   2 F :   -0.158877
   3 F :   -0.165734
   4 C :    0.541720
   5 F :   -0.198705
   6 F :   -0.198877
   7 F :   -0.186521
   8 F :   -0.188774
Sum of atomic charges:    0.0000000

LOEWDIN ATOMIC CHARGES
----------------------
   0 C :    0.191982
   1 C :    0.444691
   2 F :   -0.172792
   3 F :   -0.180505
   4 C :    0.531484
   5 F :   -0.198270
   6 F :   -0.198098
   7 F :   -0.175682
   8 F :   -0.242810

  Mayer bond orders larger than 0.100000
B(  0-C ,  1-C ) :   1.7741 B(  0-C ,  4-C ) :   0.9701 B(  0-C ,  8-F ) :   0.9123
B(  1-C ,  2-F ) :   1.0024 B(  1-C ,  3-F ) :   1.0116 B(  4-C ,  5-F ) :   1.0182
B(  4-C ,  6-F ) :   1.0189 B(  4-C ,  7-F ) :   1.0609

Dispersion correction           -0.002042109
FINAL SINGLE POINT ENERGY      -713.315156516931

DIPOLE MOMENT
-------------

Method             : SCF
Type of density    : Electron Density
Multiplicity       :   1
Irrep              :   0
Energy             :  -713.3241944440932230 Eh
Relativity type    :
Basis              : AO
                                X                 Y                 Z
Electronic contribution:      0.068504313       0.174982228      -0.000484376
Nuclear contribution   :      0.325076440      -0.168258170      -0.000087252
                        -----------------------------------------
Total Dipole Moment    :      0.393580753       0.006724058      -0.000571628
                        -----------------------------------------
Magnitude (a.u.)       :      0.393638601
Magnitude (Debye)      :      1.000549810

Rotational constants in cm-1:             0.084198             0.042493             0.033080
Rotational constants in MHz :          2524.195849          1273.921603           991.699765

                             ****ORCA TERMINATED NORMALLY****
TOTAL RUN TIME: 0 days 0 hours 0 minutes 20 seconds 393 msec
