                         Program Version 6.0.0  -   RELEASE  -
|  1> ! r2scan-3c def2/J RI DEFGRID2 scfconv6 printgap
|  2> %output
|  3>     printlevel normal
|  4> end
|  5> %cpcm
|  6>     smd true
|  7>     smdsolvent "water"
|  8> end
|  9> * xyz 0 1
| 10> C 0.2621757016 -0.5431559339 -0.0002763562
| 11> C 1.3996988529 0.1504817402 0.0001942174
| 12> F 2.6011208038 -0.3700120452 0.0005251443
| 13> F 1.4388850142 1.4622293758 -0.0004888367
| 14> C -1.1069199463 0.1054320705 -6.6814e-05
| 15> F -1.294271363 0.8779461674 1.0779844707
| 16> F -1.2852998695 0.8967458064 -1.0657611715
| 17> F -2.0725296462 -0.8053667426 -0.0118796832
| 18> F 0.2612543517 -1.8799489166 -0.0002857561
| 19> *
| 20>
| 21>                          ****END OF INPUT****

CARTESIAN COORDINATES (ANGSTROEM)
---------------------------------
  C      0.262176   -0.543156   -0.000276
  C      1.399699    0.150482    0.000194
  F      2.601121   -0.370012    0.000525
  F      1.438885    1.462229   -0.000489
  C     -1.106920    0.105432   -0.000067
  F     -1.294271    0.877946    1.077984
  F     -1.285300    0.896746   -1.065761
  F     -2.072530   -0.805367   -0.011880
  F      0.261254   -1.879949   -0.000286

 Total Charge           Charge          ....    0
 Multiplicity           Mult            ....    1
 Number of Electrons    NEL             ....   72
 Basis Dimension        Dim             ....  201

ORBITAL ENERGIES
----------------

  NO   OCC          E(Eh)            E(eV)
   0   2.0000     -24.557612      -668.2466
   1   2.0000     -24.557516      -668.2440
   2   2.0000     -24.540110      -667.7703
   3   2.0000     -24.534985      -667.6309
   4   2.0000     -24.532480      -667.5627
   5   2.0000     -24.532373      -667.5598
   6   2.0000     -10.311040      -280.5777
   7   2.0000     -10.236752      -278.5562
   8   2.0000     -10.157348      -276.3955
   9   2.0000      -1.299226       -35.3537
  10   2.0000      -1.284513       -34.9534
  11   2.0000      -1.228689       -33.4343
  12   2.0000      -1.221871       -33.2488
  13   2.0000      -1.208782       -32.8926
  14   2.0000      -1.202610       -32.7247
  15   2.0000      -0.801545       -21.8111
  16   2.0000      -0.702431       -19.1141
  17   2.0000      -0.634532       -17.2665
  18   2.0000      -0.594439       -16.1755
  19   2.0000      -0.589640       -16.0449
  20   2.0000      -0.575605       -15.6630
  21   2.0000      -0.563916       -15.3449
  22   2.0000      -0.539892       -14.6912
  23   2.0000      -0.517689       -14.0870
  24   2.0000      -0.452643       -12.3170
  25   2.0000      -0.450729       -12.2650
  26   2.0000      -0.445926       -12.1343
  27   2.0000      -0.438782       -11.9399
  28   2.0000      -0.434560       -11.8250
  29   2.0000      -0.430451       -11.7132
  30   2.0000      -0.418669       -11.3926
  31   2.0000      -0.403543       -10.9810
  32   2.0000      -0.402167       -10.9435
  33   2.0000      -0.383907       -10.4466
  34   2.0000      -0.365723        -9.9518
  35   2.0000      -0.251197        -6.8354
  36   0.0000      -0.042503        -1.1566
  37   0.0000      -0.005638        -0.1534
  38   0.0000       0.061655         1.6777
  39   0.0000       0.113612         3.0915
  40   0.0000       0.124573         3.3898

MULLIKEN ATOMIC CHARGES
-----------------------
   0 C :    0.152061
   1 C :    0.444865
   2 F :   -0.161612
   3 F :   -0.171413
   4 C :    0.534131
   5 F :   -0.202424
   6 F :   -0.202664
   7 F :   -0.192946
   8 F :   -0.199998
Sum of atomic charges:    0.0000000

LOEWDIN ATOMIC CHARGES
----------------------
   0 C :    0.195906
   1 C :    0.456710
   2 F :   -0.171580
   3 F :   -0.181355
   4 C :    0.532764
   5 F :   -0.202032
   6 F :   -0.201855
   7 F :   -0.180011
   8 F :   -0.248547

  Mayer bond orders larger than 0.100000
B(  0-C ,  1-C ) :   1.7698 B(  0-C ,  4-C ) :   0.9760 B(  0-C ,  8-F ) :   0.9083
B(  1-C ,  2-F ) :   1.0067 B(  1-C ,  3-F ) :   1.0133 B(  4-C ,  5-F ) :   1.0174
B(  4-C ,  6-F ) :   1.0181 B(  4-C ,  7-F ) :   1.0574

Dispersion correction           -0.002042109
FINAL SINGLE POINT ENERGY      -713.308531657213

DIPOLE MOMENT
-------------

Method             : SCF
Type of density    : Electron Density
Multiplicity       :   1
Irrep              :   0
Energy             :  -713.3175695843752919 Eh
Relativity type    :
Basis              : AO
                                X                 Y                 Z
Electronic contribution:      0.163255663       0.177050084      -0.000582801
Nuclear contribution   :      0.325076440      -0.168258170      -0.000087252
                        -----------------------------------------
Total Dipole Moment    :      0.488332103       0.008791914      -0.000670053
                        -----------------------------------------
Magnitude (a.u.)       :      0.488411700
Magnitude (Debye)      :      1.241443883

Rotational constants in cm-1:             0.084198             0.042493             0.033080
Rotational constants in MHz :          2524.195849          1273.921603           991.699765

                             ****ORCA TERMINATED NORMALLY****
TOTAL RUN TIME: 0 days 0 hours 0 minutes 23 seconds 864 msec
