                         Program Version 6.0.0  -   RELEASE  -
|  1> ! wb97x-v def2-tzvp def2/J RIJCOSX DEFGRID2 scfconv7 GCP(DFT/TZ) printgap
|  2> %output
|  3>     printlevel normal
|  4> end
|  5> * xyz 0 1
|  6> C -2.630325650199392 -0.5632570565430295 1.0230006884820737
|  7> C -1.77297320163599 0.02908898985520044 -0.059812354657443396
|  8> O -2.250181571711712 0.28823305637758956 -1.1621830693795272
|  9> C -0.3134333821341976 0.25677437460284436 0.2506559960841694
| 10> C 0.4318246038862105 0.9799423286310363 -0.8689263701636611
| 11> C 1.9029404318121865 1.1888528615323397 -0.5054174091700434
| 12> C 2.584975189978196 -0.14117680972886762 -0.18391574533584235
| 13> C 1.844616767232216 -0.8768529862239175 0.9326710530416977
| 14> C 0.36975523342636524 -1.089412870785557 0.5878454635712292
| 15> H -3.6731629606644574 -0.2757314683230473 0.8749653308632097
| 16> H -2.567185249293757 -1.6565389814371752 0.9528207797909508
| 17> H -2.2874900497491155 -0.2776631378440979 2.020331080183154
| 18> H -0.287235661973433 0.8682504120209751 1.1663966786741071
| 19> H 0.3649775092711083 0.382061450927796 -1.7871201443065545
| 20> H -0.05178242905052315 1.9407546256387695 -1.0776249565501417
| 21> H 2.420380236021324 1.6937692445765942 -1.3291078546377015
| 22> H 1.97059997471619 1.8512330147892744 0.36877390400561616
| 23> H 2.5970499944129877 -0.7689708435214513 -1.0858930885416676
| 24> H 3.6295322718248277 0.026223438629650195 0.10314467137585213
| 25> H 2.316075234137442 -1.846482851031468 1.1303294628902976
| 26> H 1.9121836889801525 -0.29051659807029623 1.8592531837166253
| 27> H 0.28435239239679 -1.7521362400619256 -0.28431127677313256
| 28> H -0.1428914808741083 -1.5780941249105047 1.4223352857989275
| 29> *
| 30>
| 31>                          ****END OF INPUT****

CARTESIAN COORDINATES (ANGSTROEM)
---------------------------------
  C     -2.630326   -0.563257    1.023001
  C     -1.772973    0.029089   -0.059812
  O     -2.250182    0.288233   -1.162183
  C     -0.313433    0.256774    0.250656
  C      0.431825    0.979942   -0.868926
  C      1.902940    1.188853   -0.505417
  C      2.584975   -0.141177   -0.183916
  C      1.844617   -0.876853    0.932671
  C      0.369755   -1.089413    0.587845
  H     -3.673163   -0.275731    0.874965
  H     -2.567185   -1.656539    0.952821
  H     -2.287490   -0.277663    2.020331
  H     -0.287236    0.868250    1.166397
  H      0.364978    0.382061   -1.787120
  H     -0.051782    1.940755   -1.077625
  H      2.420380    1.693769   -1.329108
  H      1.970600    1.851233    0.368774
  H      2.597050   -0.768971   -1.085893
  H      3.629532    0.026223    0.103145
  H      2.316075   -1.846483    1.130329
  H      1.912184   -0.290517    1.859253
  H      0.284352   -1.752136   -0.284311
  H     -0.142891   -1.578094    1.422335

 Total Charge           Charge          ....    0
 Multiplicity           Mult            ....    1
 Number of Electrons    NEL             ....   70
 Basis Dimension        Dim             ....  363

ORBITAL ENERGIES
----------------

  NO   OCC          E(Eh)            E(eV)
   0   2.0000     -21.655315      -589.2711
   1   2.0000     -12.133729      -330.1755
   2   2.0000     -12.057936      -328.1131
   3   2.0000     -12.054056      -328.0075
   4   2.0000     -12.050503      -327.9109
   5   2.0000     -12.046553      -327.8034
   6   2.0000     -12.042020      -327.6800
   7   2.0000     -12.040400      -327.6359
   8   2.0000     -12.037997      -327.5705
   9   2.0000      -1.697938       -46.2032
  10   2.0000      -1.352976       -36.8164
  11   2.0000      -1.287319       -35.0297
  12   2.0000      -1.254389       -34.1336
  13   2.0000      -1.239300       -33.7231
  14   2.0000      -1.134316       -30.8663
  15   2.0000      -1.102431       -29.9987
  16   2.0000      -1.071690       -29.1622
  17   2.0000      -1.024089       -27.8669
  18   2.0000      -0.969482       -26.3809
  19   2.0000      -0.956147       -26.0181
  20   2.0000      -0.914347       -24.8807
  21   2.0000      -0.897200       -24.4141
  22   2.0000      -0.877339       -23.8736
  23   2.0000      -0.874455       -23.7951
  24   2.0000      -0.859804       -23.3965
  25   2.0000      -0.846724       -23.0405
  26   2.0000      -0.833573       -22.6827
  27   2.0000      -0.829182       -22.5632
  28   2.0000      -0.823612       -22.4116
  29   2.0000      -0.805764       -21.9259
  30   2.0000      -0.783407       -21.3176
  31   2.0000      -0.780146       -21.2288
  32   2.0000      -0.760124       -20.6840
  33   2.0000      -0.754885       -20.5415
  34   2.0000      -0.739840       -20.1321
  35   0.0000      -0.307355        -8.3635
  36   0.0000      -0.063342        -1.7236
  37   0.0000      -0.052382        -1.4254
  38   0.0000      -0.036397        -0.9904
  39   0.0000      -0.030944        -0.8420

MULLIKEN ATOMIC CHARGES
-----------------------
   0 C :   -0.377639
   1 C :    0.208969
   2 O :   -0.316670
   3 C :   -0.044171
   4 C :   -0.210786
   5 C :   -0.166659
   6 C :   -0.184187
   7 C :   -0.174149
   8 C :   -0.249922
   9 H :    0.144103
  10 H :    0.138862
  11 H :    0.125716
  12 H :    0.087223
  13 H :    0.107795
  14 H :    0.111253
  15 H :    0.104246
  16 H :    0.086684
  17 H :    0.090249
  18 H :    0.103352
  19 H :    0.104062
  20 H :    0.089887
  21 H :    0.110416
  22 H :    0.111363
Sum of atomic charges:   -0.0000000

LOEWDIN ATOMIC CHARGES
----------------------
   0 C :   -0.262182
   1 C :   -0.313458
   2 O :    0.108684
   3 C :   -0.226946
   4 C :   -0.225898
   5 C :   -0.257895
   6 C :   -0.260090
   7 C :   -0.257362
   8 C :   -0.222363
   9 H :    0.133042
  10 H :    0.139400
  11 H :    0.126359
  12 H :    0.162297
  13 H :    0.143191
  14 H :    0.139630
  15 H :    0.132478
  16 H :    0.132605
  17 H :    0.134582
  18 H :    0.131486
  19 H :    0.132646
  20 H :    0.134305
  21 H :    0.140796
  22 H :    0.134692

  Mayer bond orders larger than 0.100000
B(  0-C ,  1-C ) :   0.9716 B(  0-C ,  9-H ) :   0.9764 B(  0-C , 10-H ) :   0.9495
B(  0-C , 11-H ) :   0.9748 B(  1-C ,  2-O ) :   2.1377 B(  1-C ,  3-C ) :   0.9294
B(  3-C ,  4-C ) :   0.9956 B(  3-C ,  8-C ) :   0.9288 B(  3-C , 12-H ) :   0.9453
B(  4-C ,  5-C ) :   0.9758 B(  4-C , 13-H ) :   0.9716 B(  4-C , 14-H ) :   0.9759
B(  5-C ,  6-C ) :   0.9851 B(  5-C , 15-H ) :   0.9791 B(  5-C , 16-H ) :   0.9741
B(  6-C ,  7-C ) :   0.9930 B(  6-C , 17-H ) :   0.9742 B(  6-C , 18-H ) :   0.9762
B(  7-C ,  8-C ) :   0.9888 B(  7-C , 19-H ) :   0.9766 B(  7-C , 20-H ) :   0.9745
B(  8-C , 21-H ) :   0.9674 B(  8-C , 22-H ) :   0.9732

FINAL SINGLE POINT ENERGY      -388.543132621223

DIPOLE MOMENT
-------------

Method             : SCF
Type of density    : Electron Density
Multiplicity       :   1
Irrep              :   0
Energy             :  -388.5589195754227489 Eh
Relativity type    :
Basis              : AO
                                X                 Y                 Z
Electronic contribution:     -5.512080882       1.316924974      -3.050793475
Nuclear contribution   :      6.095791915      -1.608743053       4.059422097
                        -----------------------------------------
Total Dipole Moment    :      0.583711033      -0.291818078       1.008628622
                        -----------------------------------------
Magnitude (a.u.)       :      1.201335947
Magnitude (Debye)      :      3.053553307

Rotational constants in cm-1:             0.102263             0.036330             0.029317
Rotational constants in MHz :          3065.782001          1089.137130           878.895605

                             ****ORCA TERMINATED NORMALLY****
TOTAL RUN TIME: 0 days 0 hours 3 minutes 39 seconds 941 msec
