                         Program Version 6.0.0  -   RELEASE  -
|  1> ! wb97x-v def2-tzvp def2/J RIJCOSX DEFGRID2 scfconv7 GCP(DFT/TZ) printgap
|  2> %output
|  3>     printlevel normal
|  4> end
|  5> %cpcm
|  6>     smd true
|  7>     smdsolvent "water"
|  8> end
|  9> * xyz 0 1
| 10> C -2.630325650199392 -0.5632570565430295 1.0230006884820737
| 11> C -1.77297320163599 0.02908898985520044 -0.059812354657443396
| 12> O -2.250181571711712 0.28823305637758956 -1.1621830693795272
| 13> C -0.3134333821341976 0.25677437460284436 0.2506559960841694
| 14> C 0.4318246038862105 0.9799423286310363 -0.8689263701636611
| 15> C 1.9029404318121865 1.1888528615323397 -0.5054174091700434
| 16> C 2.584975189978196 -0.14117680972886762 -0.18391574533584235
| 17> C 1.844616767232216 -0.8768529862239175 0.9326710530416977
| 18> C 0.36975523342636524 -1.089412870785557 0.5878454635712292
| 19> H -3.6731629606644574 -0.2757314683230473 0.8749653308632097
| 20> H -2.567185249293757 -1.6565389814371752 0.9528207797909508
| 21> H -2.2874900497491155 -0.2776631378440979 2.020331080183154
| 22> H -0.287235661973433 0.8682504120209751 1.1663966786741071
| 23> H 0.3649775092711083 0.382061450927796 -1.7871201443065545
| 24> H -0.05178242905052315 1.9407546256387695 -1.0776249565501417
| 25> H 2.420380236021324 1.6937692445765942 -1.3291078546377015
| 26> H 1.97059997471619 1.8512330147892744 0.36877390400561616
| 27> H 2.5970499944129877 -0.7689708435214513 -1.0858930885416676
| 28> H 3.6295322718248277 0.026223438629650195 0.10314467137585213
| 29> H 2.316075234137442 -1.846482851031468 1.1303294628902976
| 30> H 1.9121836889801525 -0.29051659807029623 1.8592531837166253
| 31> H 0.28435239239679 -1.7521362400619256 -0.28431127677313256
| 32> H -0.1428914808741083 -1.5780941249105047 1.4223352857989275
| 33> *
| 34>
| 35>                          ****END OF INPUT****

CARTESIAN COORDINATES (ANGSTROEM)
---------------------------------
  C     -2.630326   -0.563257    1.023001
  C     -1.772973    0.029089   -0.059812
  O     -2.250182    0.288233   -1.162183
  C     -0.313433    0.256774    0.250656
  C      0.431825    0.979942   -0.868926
  C      1.902940    1.188853   -0.505417
  C      2.584975   -0.141177   -0.183916
  C      1.844617   -0.876853    0.932671
  C      0.369755   -1.089413    0.587845
  H     -3.673163   -0.275731    0.874965
  H     -2.567185   -1.656539    0.952821
  H     -2.287490   -0.277663    2.020331
  H     -0.287236    0.868250    1.166397
  H      0.364978    0.382061   -1.787120
  H     -0.051782    1.940755   -1.077625
  H      2.420380    1.693769   -1.329108
  H      1.970600    1.851233    0.368774
  H      2.597050   -0.768971   -1.085893
  H      3.629532    0.026223    0.103145
  H      2.316075   -1.846483    1.130329
  H      1.912184   -0.290517    1.859253
  H      0.284352   -1.752136   -0.284311
  H     -0.142891   -1.578094    1.422335

 Total Charge           Charge          ....    0
 Multiplicity           Mult            ....    1
 Number of Electrons    NEL             ....   70
 Basis Dimension        Dim             ....  363

ORBITAL ENERGIES
----------------

  NO   OCC          E(Eh)            E(eV)
   0   2.0000     -21.666117      -589.5650
   1   2.0000     -12.141029      -330.3742
   2   2.0000     -12.047943      -327.8412
   3   2.0000     -12.038955      -327.5966
   4   2.0000     -12.038137      -327.5744
   5   2.0000     -12.031611      -327.3968
   6   2.0000     -12.031386      -327.3907
   7   2.0000     -12.029912      -327.3505
   8   2.0000     -12.028414      -327.3098
   9   2.0000      -1.712222       -46.5919
  10   2.0000      -1.342306       -36.5260
  11   2.0000      -1.278689       -34.7949
  12   2.0000      -1.242857       -33.8199
  13   2.0000      -1.229591       -33.4589
  14   2.0000      -1.128269       -30.7017
  15   2.0000      -1.091168       -29.6922
  16   2.0000      -1.079042       -29.3622
  17   2.0000      -1.014404       -27.6033
  18   2.0000      -0.970056       -26.3966
  19   2.0000      -0.954179       -25.9645
  20   2.0000      -0.920872       -25.0582
  21   2.0000      -0.889536       -24.2055
  22   2.0000      -0.865419       -23.5493
  23   2.0000      -0.863573       -23.4990
  24   2.0000      -0.851091       -23.1594
  25   2.0000      -0.836096       -22.7513
  26   2.0000      -0.824249       -22.4290
  27   2.0000      -0.820459       -22.3258
  28   2.0000      -0.812101       -22.0984
  29   2.0000      -0.800156       -21.7733
  30   2.0000      -0.772933       -21.0326
  31   2.0000      -0.767871       -20.8948
  32   2.0000      -0.750746       -20.4288
  33   2.0000      -0.743419       -20.2295
  34   2.0000      -0.727544       -19.7975
  35   0.0000      -0.305274        -8.3069
  36   0.0000      -0.055334        -1.5057
  37   0.0000      -0.045140        -1.2283
  38   0.0000      -0.021034        -0.5724
  39   0.0000      -0.017171        -0.4672

MULLIKEN ATOMIC CHARGES
-----------------------
   0 C :   -0.417893
   1 C :    0.289248
   2 O :   -0.459376
   3 C :   -0.037560
   4 C :   -0.232329
   5 C :   -0.195292
   6 C :   -0.207107
   7 C :   -0.194084
   8 C :   -0.259919
   9 H :    0.151614
  10 H :    0.170383
  11 H :    0.158552
  12 H :    0.119263
  13 H :    0.104701
  14 H :    0.116037
  15 H :    0.113636
  16 H :    0.101004
  17 H :    0.098343
  18 H :    0.114228
  19 H :    0.115153
  20 H :    0.102758
  21 H :    0.115967
  22 H :    0.132673
Sum of atomic charges:   -0.0000000

LOEWDIN ATOMIC CHARGES
----------------------
   0 C :   -0.256097
   1 C :   -0.290950
   2 O :    0.027816
   3 C :   -0.219706
   4 C :   -0.234152
   5 C :   -0.258799
   6 C :   -0.262725
   7 C :   -0.257929
   8 C :   -0.217893
   9 H :    0.134001
  10 H :    0.150328
  11 H :    0.138499
  12 H :    0.175130
  13 H :    0.139970
  14 H :    0.137381
  15 H :    0.133390
  16 H :    0.136541
  17 H :    0.135925
  18 H :    0.132927
  19 H :    0.134732
  20 H :    0.137692
  21 H :    0.142833
  22 H :    0.141085

  Mayer bond orders larger than 0.100000
B(  0-C ,  1-C ) :   1.0007 B(  0-C ,  9-H ) :   0.9667 B(  0-C , 10-H ) :   0.9372
B(  0-C , 11-H ) :   0.9662 B(  1-C ,  2-O ) :   1.9727 B(  1-C ,  3-C ) :   0.9436
B(  3-C ,  4-C ) :   0.9873 B(  3-C ,  8-C ) :   0.9340 B(  3-C , 12-H ) :   0.9355
B(  4-C ,  5-C ) :   0.9914 B(  4-C , 13-H ) :   0.9647 B(  4-C , 14-H ) :   0.9728
B(  5-C ,  6-C ) :   0.9888 B(  5-C , 15-H ) :   0.9760 B(  5-C , 16-H ) :   0.9730
B(  6-C ,  7-C ) :   0.9927 B(  6-C , 17-H ) :   0.9729 B(  6-C , 18-H ) :   0.9737
B(  7-C ,  8-C ) :   0.9878 B(  7-C , 19-H ) :   0.9740 B(  7-C , 20-H ) :   0.9727
B(  8-C , 21-H ) :   0.9651 B(  8-C , 22-H ) :   0.9681

FINAL SINGLE POINT ENERGY      -388.550820310914

DIPOLE MOMENT
-------------

Method             : SCF
Type of density    : Electron Density
Multiplicity       :   1
Irrep              :   0
Energy             :  -388.5666072651139302 Eh
Relativity type    :
Basis              : AO
                                X                 Y                 Z
Electronic contribution:     -5.293584734       1.159714047      -2.477413014
Nuclear contribution   :      6.095791915      -1.608743053       4.059422097
                        -----------------------------------------
Total Dipole Moment    :      0.802207180      -0.449029006       1.582009083
                        -----------------------------------------
Magnitude (a.u.)       :      1.829731168
Magnitude (Debye)      :      4.650807022

Rotational constants in cm-1:             0.102263             0.036330             0.029317
Rotational constants in MHz :          3065.782001          1089.137130           878.895605

                             ****ORCA TERMINATED NORMALLY****
TOTAL RUN TIME: 0 days 0 hours 3 minutes 45 seconds 744 msec
