                         Program Version 6.0.0  -   RELEASE  -
|  1> ! pbe def2-sv(p) def2/J RI DEFGRID1 loosescf d4 GCP(DFT/SV(P)) printgap
|  2> %output
|  3>     printlevel normal
|  4> end
|  5> * xyz 0 1
|  6> C -2.4014510252 -0.825746945 0.519006147
|  7> C -0.9937908625 -0.2614630033 0.780884983
|  8> H -0.9909548005 0.1814640278 1.7868598534
|  9> C -0.6395791098 0.8432345387 -0.2143388159
| 10> H -0.7034958472 0.4581506943 -1.2408989536
| 11> C 0.7935632897 1.3258466517 0.0499090111
| 12> H 0.7954177872 1.8321289659 1.0289542401
| 13> C 1.7881785932 0.1434307548 0.1209591346
| 14> H 2.5075657089 0.2400945941 -0.6985427353
| 15> C 1.0750988907 -1.206549815 -0.06536848
| 16> H 1.7477150056 -2.003103588 0.2882406042
| 17> O -0.0538184116 -1.3392994226 0.765771992
| 18> O 0.7825562261 -1.359890626 -1.4164554077
| 19> O 2.5417498561 0.1539549335 1.3069282036
| 20> O 1.111331505 2.2437661771 -0.9681287804
| 21> O -1.5561786356 1.891519851 -0.0187374833
| 22> O -2.4687931965 -1.5932671992 -0.6537275426
| 23> H -3.0871611098 0.012551944 0.3911970202
| 24> H -2.7084213085 -1.4222982803 1.3863639234
| 25> H 0.5324185311 -2.2742934503 -1.6165690693
| 26> H 1.984544314 -0.110022503 2.0534994455
| 27> H 1.9658191435 2.6579419624 -0.78279755
| 28> H -1.3211242337 2.6101374704 -0.624768799
| 29> H -1.8825800801 -2.3551635941 -0.5395820783
| 30> *
| 31>
| 32>                          ****END OF INPUT****

CARTESIAN COORDINATES (ANGSTROEM)
---------------------------------
  C     -2.401451   -0.825747    0.519006
  C     -0.993791   -0.261463    0.780885
  H     -0.990955    0.181464    1.786860
  C     -0.639579    0.843235   -0.214339
  H     -0.703496    0.458151   -1.240899
  C      0.793563    1.325847    0.049909
  H      0.795418    1.832129    1.028954
  C      1.788179    0.143431    0.120959
  H      2.507566    0.240095   -0.698543
  C      1.075099   -1.206550   -0.065368
  H      1.747715   -2.003104    0.288241
  O     -0.053818   -1.339299    0.765772
  O      0.782556   -1.359891   -1.416455
  O      2.541750    0.153955    1.306928
  O      1.111332    2.243766   -0.968129
  O     -1.556179    1.891520   -0.018737
  O     -2.468793   -1.593267   -0.653728
  H     -3.087161    0.012552    0.391197
  H     -2.708421   -1.422298    1.386364
  H      0.532419   -2.274293   -1.616569
  H      1.984544   -0.110023    2.053499
  H      1.965819    2.657942   -0.782798
  H     -1.321124    2.610137   -0.624769
  H     -1.882580   -2.355164   -0.539582

 Total Charge           Charge          ....    0
 Multiplicity           Mult            ....    1
 Number of Electrons    NEL             ....   96
 Basis Dimension        Dim             ....  192

ORBITAL ENERGIES
----------------

  NO   OCC          E(Eh)            E(eV)
   0   2.0000     -18.780068      -511.0316
   1   2.0000     -18.769933      -510.7559
   2   2.0000     -18.757977      -510.4305
   3   2.0000     -18.756812      -510.3988
   4   2.0000     -18.747270      -510.1391
   5   2.0000     -18.744794      -510.0718
   6   2.0000      -9.992380      -271.9065
   7   2.0000      -9.943856      -270.5861
   8   2.0000      -9.943484      -270.5760
   9   2.0000      -9.940373      -270.4913
  10   2.0000      -9.934927      -270.3431
  11   2.0000      -9.924814      -270.0679
  12   2.0000      -0.987179       -26.8625
  13   2.0000      -0.944217       -25.6934
  14   2.0000      -0.932732       -25.3809
  15   2.0000      -0.928156       -25.2564
  16   2.0000      -0.916766       -24.9465
  17   2.0000      -0.912760       -24.8375
  18   2.0000      -0.704577       -19.1725
  19   2.0000      -0.691471       -18.8159
  20   2.0000      -0.621303       -16.9065
  21   2.0000      -0.586870       -15.9696
  22   2.0000      -0.565315       -15.3830
  23   2.0000      -0.527562       -14.3557
  24   2.0000      -0.503518       -13.7014
  25   2.0000      -0.491474       -13.3737
  26   2.0000      -0.471842       -12.8395
  27   2.0000      -0.451359       -12.2821
  28   2.0000      -0.444526       -12.0962
  29   2.0000      -0.434928       -11.8350
  30   2.0000      -0.424675       -11.5560
  31   2.0000      -0.400366       -10.8945
  32   2.0000      -0.379618       -10.3299
  33   2.0000      -0.371629       -10.1125
  34   2.0000      -0.360799        -9.8178
  35   2.0000      -0.354702        -9.6519
  36   2.0000      -0.334652        -9.1063
  37   2.0000      -0.308346        -8.3905
  38   2.0000      -0.303078        -8.2472
  39   2.0000      -0.295926        -8.0526
  40   2.0000      -0.282062        -7.6753
  41   2.0000      -0.266127        -7.2417
  42   2.0000      -0.256173        -6.9708
  43   2.0000      -0.246673        -6.7123
  44   2.0000      -0.238907        -6.5010
  45   2.0000      -0.220364        -5.9964
  46   2.0000      -0.212066        -5.7706
  47   2.0000      -0.206398        -5.6164
  48   0.0000       0.007636         0.2078
  49   0.0000       0.021588         0.5875
  50   0.0000       0.024414         0.6643
  51   0.0000       0.052145         1.4189
  52   0.0000       0.058690         1.5970

MULLIKEN ATOMIC CHARGES
-----------------------
   0 C :    0.075659
   1 C :    0.006382
   2 H :    0.057402
   3 C :    0.083906
   4 H :    0.078426
   5 C :    0.045150
   6 H :    0.042159
   7 C :    0.092102
   8 H :    0.071971
   9 C :    0.104992
  10 H :    0.068936
  11 O :   -0.330098
  12 O :   -0.375753
  13 O :   -0.423756
  14 O :   -0.420892
  15 O :   -0.419886
  16 O :   -0.435245
  17 H :    0.101404
  18 H :    0.074476
  19 H :    0.303587
  20 H :    0.301045
  21 H :    0.307366
  22 H :    0.308992
  23 H :    0.281673
Sum of atomic charges:   -0.0000000

LOEWDIN ATOMIC CHARGES
----------------------
   0 C :   -0.127362
   1 C :   -0.065702
   2 H :    0.107405
   3 C :   -0.078364
   4 H :    0.117391
   5 C :   -0.077929
   6 H :    0.100692
   7 C :   -0.083444
   8 H :    0.124634
   9 C :   -0.017796
  10 H :    0.099490
  11 O :   -0.156800
  12 O :   -0.299419
  13 O :   -0.314639
  14 O :   -0.321472
  15 O :   -0.317274
  16 O :   -0.330904
  17 H :    0.125845
  18 H :    0.097547
  19 H :    0.285230
  20 H :    0.283304
  21 H :    0.290199
  22 H :    0.289831
  23 H :    0.269537

  Mayer bond orders larger than 0.100000
B(  0-C ,  1-C ) :   1.0441 B(  0-C , 16-O ) :   1.0734 B(  0-C , 17-H ) :   0.9086
B(  0-C , 18-H ) :   0.9203 B(  1-C ,  2-H ) :   0.8772 B(  1-C ,  3-C ) :   1.0068
B(  1-C , 11-O ) :   0.9707 B(  3-C ,  4-H ) :   0.8362 B(  3-C ,  5-C ) :   1.0887
B(  3-C , 15-O ) :   1.0484 B(  5-C ,  6-H ) :   0.8696 B(  5-C ,  7-C ) :   0.9518
B(  5-C , 14-O ) :   1.0766 B(  7-C ,  8-H ) :   0.8580 B(  7-C ,  9-C ) :   1.0499
B(  7-C , 13-O ) :   1.0377 B(  9-C , 10-H ) :   0.8995 B(  9-C , 11-O ) :   1.0531
B(  9-C , 12-O ) :   1.1315 B( 12-O , 19-H ) :   0.8350 B( 13-O , 20-H ) :   0.8460
B( 14-O , 21-H ) :   0.8464 B( 15-O , 22-H ) :   0.8378 B( 16-O , 23-H ) :   0.8410

Dispersion correction           -0.024845990
FINAL SINGLE POINT ENERGY      -685.691855782574

DIPOLE MOMENT
-------------

Method             : SCF
Type of density    : Electron Density
Multiplicity       :   1
Irrep              :   0
Energy             :  -685.8222213031310730 Eh
Relativity type    :
Basis              : AO
                                X                 Y                 Z
Electronic contribution:      1.706741870      -0.140437311      -0.991923496
Nuclear contribution   :     -1.083231831      -0.161799206       1.328835607
                        -----------------------------------------
Total Dipole Moment    :      0.623510039      -0.302236517       0.336912111
                        -----------------------------------------
Magnitude (a.u.)       :      0.770468333
Magnitude (Debye)      :      1.958374867

Rotational constants in cm-1:             0.040825             0.027748             0.021411
Rotational constants in MHz :          1223.912448           831.868114           641.878487

                             ****ORCA TERMINATED NORMALLY****
TOTAL RUN TIME: 0 days 0 hours 0 minutes 11 seconds 903 msec
