                         Program Version 6.0.0  -   RELEASE  -
|  1> ! wb97x-v def2-tzvp def2/J RIJCOSX DEFGRID2 scfconv7 GCP(DFT/TZ) printgap
|  2> %output
|  3>     printlevel normal
|  4> end
|  5> * xyz 0 1
|  6> C 2.4199871240592663 0.6960062048012639 3.1684358925552776e-05
|  7> C 2.3967752539491767 -0.7163987744040224 -7.394808854968044e-05
|  8> C 1.2031130721442034 -1.3995038966908329 -5.584422170404875e-05
|  9> C -0.023574184618666408 -0.6951936089363535 3.700118200094197e-06
| 10> C 0.00010092473447378192 0.7342157855651519 2.6554727684596357e-05
| 11> C 1.2446121446919782 1.4085411042017004 5.799405761162808e-05
| 12> C -1.238554591860667 1.4139902637570803 2.119525882106129e-05
| 13> C -2.401233092137612 0.685969762570311 5.227868222230634e-06
| 14> C -2.3224597107553735 -0.7218740449944913 -8.377218114696209e-06
| 15> N -1.1916951687052422 -1.4056692047683232 -2.159395819863245e-05
| 16> H 3.372677262474949 1.2159009537331058 5.810054140697237e-06
| 17> H 3.3336160183064973 -1.264839479922336 -5.7981590619886466e-05
| 18> H 1.1779657365959175 -2.484769894271453 -7.437928386895063e-05
| 19> H 1.2511992222778185 2.4949766734713528 7.701541031758778e-05
| 20> H -1.2513074816841072 2.5002928002692855 6.752202008589288e-05
| 21> H -3.3719896248857855 1.1696250003371376 -2.8312183167303085e-06
| 22> H -3.241864596116812 -1.3052033895125945 -3.77511483166464e-05
| 23> *
| 24>
| 25>                          ****END OF INPUT****

CARTESIAN COORDINATES (ANGSTROEM)
---------------------------------
  C      2.419987    0.696006    0.000032
  C      2.396775   -0.716399   -0.000074
  C      1.203113   -1.399504   -0.000056
  C     -0.023574   -0.695194    0.000004
  C      0.000101    0.734216    0.000027
  C      1.244612    1.408541    0.000058
  C     -1.238555    1.413990    0.000021
  C     -2.401233    0.685970    0.000005
  C     -2.322460   -0.721874   -0.000008
  N     -1.191695   -1.405669   -0.000022
  H      3.372677    1.215901    0.000006
  H      3.333616   -1.264839   -0.000058
  H      1.177966   -2.484770   -0.000074
  H      1.251199    2.494977    0.000077
  H     -1.251307    2.500293    0.000068
  H     -3.371990    1.169625   -0.000003
  H     -3.241865   -1.305203   -0.000038

 Total Charge           Charge          ....    0
 Multiplicity           Mult            ....    1
 Number of Electrons    NEL             ....   68
 Basis Dimension        Dim             ....  352

ORBITAL ENERGIES
----------------

  NO   OCC          E(Eh)            E(eV)
   0   2.0000     -16.526882      -449.7193
   1   2.0000     -12.090087      -328.9880
   2   2.0000     -12.089753      -328.9789
   3   2.0000     -12.075513      -328.5914
   4   2.0000     -12.069470      -328.4270
   5   2.0000     -12.062688      -328.2424
   6   2.0000     -12.062375      -328.2339
   7   2.0000     -12.060887      -328.1934
   8   2.0000     -12.058963      -328.1411
   9   2.0000     -12.053885      -328.0029
  10   2.0000      -1.519868       -41.3577
  11   2.0000      -1.387804       -37.7641
  12   2.0000      -1.346390       -36.6371
  13   2.0000      -1.290464       -35.1153
  14   2.0000      -1.276632       -34.7389
  15   2.0000      -1.166127       -31.7319
  16   2.0000      -1.156641       -31.4738
  17   2.0000      -1.105390       -30.0792
  18   2.0000      -1.036508       -28.2048
  19   2.0000      -1.005447       -27.3596
  20   2.0000      -0.987385       -26.8681
  21   2.0000      -0.928639       -25.2696
  22   2.0000      -0.923153       -25.1203
  23   2.0000      -0.900584       -24.5061
  24   2.0000      -0.878555       -23.9067
  25   2.0000      -0.876364       -23.8471
  26   2.0000      -0.841266       -22.8920
  27   2.0000      -0.837883       -22.8000
  28   2.0000      -0.827139       -22.5076
  29   2.0000      -0.762457       -20.7475
  30   2.0000      -0.756947       -20.5976
  31   2.0000      -0.714722       -19.4486
  32   2.0000      -0.639516       -17.4021
  33   2.0000      -0.626826       -17.0568
  34   0.0000      -0.320140        -8.7114
  35   0.0000      -0.264828        -7.2063
  36   0.0000      -0.222805        -6.0628
  37   0.0000      -0.145432        -3.9574
  38   0.0000      -0.064424        -1.7531

MULLIKEN ATOMIC CHARGES
-----------------------
   0 C :   -0.121048
   1 C :   -0.056595
   2 C :   -0.266983
   3 C :    0.206884
   4 C :    0.084486
   5 C :   -0.186002
   6 C :   -0.178709
   7 C :   -0.103652
   8 C :   -0.038061
   9 N :   -0.191051
  10 H :    0.121040
  11 H :    0.121705
  12 H :    0.115280
  13 H :    0.118899
  14 H :    0.126640
  15 H :    0.126703
  16 H :    0.120464
Sum of atomic charges:    0.0000000

LOEWDIN ATOMIC CHARGES
----------------------
   0 C :   -0.138488
   1 C :   -0.132544
   2 C :   -0.096628
   3 C :   -0.162517
   4 C :   -0.104791
   5 C :   -0.101689
   6 C :   -0.076721
   7 C :   -0.153447
   8 C :   -0.196506
   9 N :    0.153611
  10 H :    0.142945
  11 H :    0.143698
  12 H :    0.149644
  13 H :    0.145473
  14 H :    0.148250
  15 H :    0.144055
  16 H :    0.135654

  Mayer bond orders larger than 0.100000
B(  0-C ,  1-C ) :   1.2686 B(  0-C ,  5-C ) :   1.5905 B(  0-C , 10-H ) :   0.9751
B(  1-C ,  2-C ) :   1.5740 B(  1-C , 11-H ) :   0.9758 B(  2-C ,  3-C ) :   1.2855
B(  2-C , 12-H ) :   0.9792 B(  3-C ,  4-C ) :   1.2216 B(  3-C ,  9-N ) :   1.3230
B(  4-C ,  5-C ) :   1.1738 B(  4-C ,  6-C ) :   1.2263 B(  5-C , 13-H ) :   0.9685
B(  6-C ,  7-C ) :   1.6118 B(  6-C , 14-H ) :   0.9707 B(  7-C ,  8-C ) :   1.2413
B(  7-C , 15-H ) :   0.9624 B(  8-C ,  9-N ) :   1.6482 B(  8-C , 16-H ) :   0.9865

FINAL SINGLE POINT ENERGY      -401.943650631767

DIPOLE MOMENT
-------------

Method             : SCF
Type of density    : Electron Density
Multiplicity       :   1
Irrep              :   0
Energy             :  -401.9518221510673470 Eh
Relativity type    :
Basis              : AO
                                X                 Y                 Z
Electronic contribution:     -1.128061728      -1.367594377       0.000023140
Nuclear contribution   :      1.187863741       2.197856001      -0.000009771
                        -----------------------------------------
Total Dipole Moment    :      0.059802014       0.830261624       0.000013369
                        -----------------------------------------
Magnitude (a.u.)       :      0.832412545
Magnitude (Debye)      :      2.115824542

Rotational constants in cm-1:             0.105220             0.042466             0.030255
Rotational constants in MHz :          3154.401677          1273.084886           907.020505

                             ****ORCA TERMINATED NORMALLY****
TOTAL RUN TIME: 0 days 0 hours 3 minutes 35 seconds 807 msec
