                         Program Version 6.0.0  -   RELEASE  -
|  1> ! wb97x-v def2-tzvp def2/J RIJCOSX DEFGRID2 scfconv7 GCP(DFT/TZ) printgap
|  2> %output
|  3>     printlevel normal
|  4> end
|  5> %cpcm
|  6>     smd true
|  7>     smdsolvent "water"
|  8> end
|  9> * xyz 0 1
| 10> C 2.4199871240592663 0.6960062048012639 3.1684358925552776e-05
| 11> C 2.3967752539491767 -0.7163987744040224 -7.394808854968044e-05
| 12> C 1.2031130721442034 -1.3995038966908329 -5.584422170404875e-05
| 13> C -0.023574184618666408 -0.6951936089363535 3.700118200094197e-06
| 14> C 0.00010092473447378192 0.7342157855651519 2.6554727684596357e-05
| 15> C 1.2446121446919782 1.4085411042017004 5.799405761162808e-05
| 16> C -1.238554591860667 1.4139902637570803 2.119525882106129e-05
| 17> C -2.401233092137612 0.685969762570311 5.227868222230634e-06
| 18> C -2.3224597107553735 -0.7218740449944913 -8.377218114696209e-06
| 19> N -1.1916951687052422 -1.4056692047683232 -2.159395819863245e-05
| 20> H 3.372677262474949 1.2159009537331058 5.810054140697237e-06
| 21> H 3.3336160183064973 -1.264839479922336 -5.7981590619886466e-05
| 22> H 1.1779657365959175 -2.484769894271453 -7.437928386895063e-05
| 23> H 1.2511992222778185 2.4949766734713528 7.701541031758778e-05
| 24> H -1.2513074816841072 2.5002928002692855 6.752202008589288e-05
| 25> H -3.3719896248857855 1.1696250003371376 -2.8312183167303085e-06
| 26> H -3.241864596116812 -1.3052033895125945 -3.77511483166464e-05
| 27> *
| 28>
| 29>                          ****END OF INPUT****

CARTESIAN COORDINATES (ANGSTROEM)
---------------------------------
  C      2.419987    0.696006    0.000032
  C      2.396775   -0.716399   -0.000074
  C      1.203113   -1.399504   -0.000056
  C     -0.023574   -0.695194    0.000004
  C      0.000101    0.734216    0.000027
  C      1.244612    1.408541    0.000058
  C     -1.238555    1.413990    0.000021
  C     -2.401233    0.685970    0.000005
  C     -2.322460   -0.721874   -0.000008
  N     -1.191695   -1.405669   -0.000022
  H      3.372677    1.215901    0.000006
  H      3.333616   -1.264839   -0.000058
  H      1.177966   -2.484770   -0.000074
  H      1.251199    2.494977    0.000077
  H     -1.251307    2.500293    0.000068
  H     -3.371990    1.169625   -0.000003
  H     -3.241865   -1.305203   -0.000038

 Total Charge           Charge          ....    0
 Multiplicity           Mult            ....    1
 Number of Electrons    NEL             ....   68
 Basis Dimension        Dim             ....  352

ORBITAL ENERGIES
----------------

  NO   OCC          E(Eh)            E(eV)
   0   2.0000     -16.530057      -449.8057
   1   2.0000     -12.090327      -328.9945
   2   2.0000     -12.088810      -328.9532
   3   2.0000     -12.069485      -328.4274
   4   2.0000     -12.066630      -328.3497
   5   2.0000     -12.056986      -328.0873
   6   2.0000     -12.056660      -328.0784
   7   2.0000     -12.055291      -328.0411
   8   2.0000     -12.053177      -327.9836
   9   2.0000     -12.051622      -327.9413
  10   2.0000      -1.522950       -41.4416
  11   2.0000      -1.385656       -37.7056
  12   2.0000      -1.342702       -36.5368
  13   2.0000      -1.288632       -35.0655
  14   2.0000      -1.273353       -34.6497
  15   2.0000      -1.163306       -31.6552
  16   2.0000      -1.153711       -31.3941
  17   2.0000      -1.102029       -29.9877
  18   2.0000      -1.033793       -28.1309
  19   2.0000      -1.001201       -27.2441
  20   2.0000      -0.983297       -26.7569
  21   2.0000      -0.922913       -25.1137
  22   2.0000      -0.918285       -24.9878
  23   2.0000      -0.894347       -24.3364
  24   2.0000      -0.873041       -23.7567
  25   2.0000      -0.870373       -23.6840
  26   2.0000      -0.844449       -22.9786
  27   2.0000      -0.831523       -22.6269
  28   2.0000      -0.823211       -22.4007
  29   2.0000      -0.764390       -20.8001
  30   2.0000      -0.756762       -20.5925
  31   2.0000      -0.712103       -19.3773
  32   2.0000      -0.637997       -17.3608
  33   2.0000      -0.625352       -17.0167
  34   0.0000      -0.318160        -8.6576
  35   0.0000      -0.263147        -7.1606
  36   0.0000      -0.221736        -6.0337
  37   0.0000      -0.141733        -3.8568
  38   0.0000      -0.061002        -1.6600

MULLIKEN ATOMIC CHARGES
-----------------------
   0 C :   -0.158970
   1 C :   -0.098987
   2 C :   -0.328533
   3 C :    0.248658
   4 C :    0.064259
   5 C :   -0.222739
   6 C :   -0.198707
   7 C :   -0.148110
   8 C :   -0.036449
   9 N :   -0.263594
  10 H :    0.164407
  11 H :    0.164593
  12 H :    0.138458
  13 H :    0.167975
  14 H :    0.175398
  15 H :    0.172379
  16 H :    0.159961
Sum of atomic charges:    0.0000000

LOEWDIN ATOMIC CHARGES
----------------------
   0 C :   -0.143122
   1 C :   -0.135507
   2 C :   -0.114892
   3 C :   -0.176598
   4 C :   -0.110974
   5 C :   -0.100217
   6 C :   -0.066445
   7 C :   -0.150355
   8 C :   -0.196789
   9 N :    0.112301
  10 H :    0.153260
  11 H :    0.154079
  12 H :    0.153475
  13 H :    0.158239
  14 H :    0.162327
  15 H :    0.156153
  16 H :    0.145066

  Mayer bond orders larger than 0.100000
B(  0-C ,  1-C ) :   1.2545 B(  0-C ,  5-C ) :   1.5612 B(  0-C , 10-H ) :   0.9778
B(  1-C ,  2-C ) :   1.5734 B(  1-C , 11-H ) :   0.9758 B(  2-C ,  3-C ) :   1.2384
B(  2-C , 12-H ) :   0.9965 B(  3-C ,  4-C ) :   1.2029 B(  3-C ,  9-N ) :   1.3061
B(  4-C ,  5-C ) :   1.1569 B(  4-C ,  6-C ) :   1.2114 B(  5-C , 13-H ) :   0.9721
B(  6-C ,  7-C ) :   1.5989 B(  6-C , 14-H ) :   0.9711 B(  7-C ,  8-C ) :   1.2592
B(  7-C , 15-H ) :   0.9593 B(  8-C ,  9-N ) :   1.6303 B(  8-C , 16-H ) :   0.9678

FINAL SINGLE POINT ENERGY      -401.952433084537

DIPOLE MOMENT
-------------

Method             : SCF
Type of density    : Electron Density
Multiplicity       :   1
Irrep              :   0
Energy             :  -401.9606046038372256 Eh
Relativity type    :
Basis              : AO
                                X                 Y                 Z
Electronic contribution:     -1.140540235      -0.880896959       0.000032775
Nuclear contribution   :      1.187863741       2.197856001      -0.000009771
                        -----------------------------------------
Total Dipole Moment    :      0.047323507       1.316959042       0.000023004
                        -----------------------------------------
Magnitude (a.u.)       :      1.317809027
Magnitude (Debye)      :      3.349604350

Rotational constants in cm-1:             0.105220             0.042466             0.030255
Rotational constants in MHz :          3154.401677          1273.084886           907.020505

                             ****ORCA TERMINATED NORMALLY****
TOTAL RUN TIME: 0 days 0 hours 3 minutes 24 seconds 61 msec
