                         Program Version 6.0.0  -   RELEASE  -
|  1> ! r2scan-3c def2/J RI DEFGRID2 scfconv6 printgap
|  2> %output
|  3>     printlevel normal
|  4> end
|  5> * xyz 0 1
|  6> C -1.6392135922 -0.9638501705 -0.8302745226
|  7> C -0.9013809732 0.0215059616 0.022739642
|  8> O -1.4950948431 0.8184939449 0.7260290621
|  9> C 0.6272006877 0.0075713693 -0.0003149768
| 10> C 1.0888576698 -0.2761686674 1.4372755586
| 11> C 1.0823812545 1.4152727662 -0.4128457161
| 12> C 1.2351910569 -1.0251138295 -0.9462210191
| 13> H -1.3723645241 -0.8215423348 -1.8737723783
| 14> H -1.3625769592 -1.9758202032 -0.5472503288
| 15> H -2.7098464173 -0.8267153305 -0.7025304391
| 16> H 0.7942786543 -1.2781709567 1.7419702603
| 17> H 2.1702629674 -0.1940525816 1.5047642183
| 18> H 0.6374962371 0.4385335493 2.121713379
| 19> H 2.1630477064 1.4969054335 -0.3336765797
| 20> H 0.623987592 2.1597931068 0.2341679136
| 21> H 0.7897380813 1.624749135 -1.439564583
| 22> H 2.3192621745 -0.9573461487 -0.892285452
| 23> H 0.9389698042 -0.8427114305 -1.9751635412
| 24> H 0.9485759088 -2.0352430027 -0.668326748
| 25> *
| 26>
| 27>                          ****END OF INPUT****

CARTESIAN COORDINATES (ANGSTROEM)
---------------------------------
  C     -1.639214   -0.963850   -0.830275
  C     -0.901381    0.021506    0.022740
  O     -1.495095    0.818494    0.726029
  C      0.627201    0.007571   -0.000315
  C      1.088858   -0.276169    1.437276
  C      1.082381    1.415273   -0.412846
  C      1.235191   -1.025114   -0.946221
  H     -1.372365   -0.821542   -1.873772
  H     -1.362577   -1.975820   -0.547250
  H     -2.709846   -0.826715   -0.702530
  H      0.794279   -1.278171    1.741970
  H      2.170263   -0.194053    1.504764
  H      0.637496    0.438534    2.121713
  H      2.163048    1.496905   -0.333677
  H      0.623988    2.159793    0.234168
  H      0.789738    1.624749   -1.439565
  H      2.319262   -0.957346   -0.892285
  H      0.938970   -0.842711   -1.975164
  H      0.948576   -2.035243   -0.668327

 Total Charge           Charge          ....    0
 Multiplicity           Mult            ....    1
 Number of Electrons    NEL             ....   56
 Basis Dimension        Dim             ....  198

ORBITAL ENERGIES
----------------

  NO   OCC          E(Eh)            E(eV)
   0   2.0000     -18.933498      -515.2067
   1   2.0000     -10.116058      -275.2719
   2   2.0000     -10.053961      -273.5822
   3   2.0000     -10.034360      -273.0488
   4   2.0000     -10.027943      -272.8742
   5   2.0000     -10.023626      -272.7567
   6   2.0000     -10.022839      -272.7353
   7   2.0000      -1.001487       -27.2518
   8   2.0000      -0.794423       -21.6174
   9   2.0000      -0.714200       -19.4344
  10   2.0000      -0.660548       -17.9744
  11   2.0000      -0.658999       -17.9323
  12   2.0000      -0.578153       -15.7324
  13   2.0000      -0.474262       -12.9053
  14   2.0000      -0.450797       -12.2668
  15   2.0000      -0.433916       -11.8074
  16   2.0000      -0.420909       -11.4535
  17   2.0000      -0.397942       -10.8286
  18   2.0000      -0.391175       -10.6444
  19   2.0000      -0.377177       -10.2635
  20   2.0000      -0.370136       -10.0719
  21   2.0000      -0.359643        -9.7864
  22   2.0000      -0.340327        -9.2608
  23   2.0000      -0.327305        -8.9064
  24   2.0000      -0.324249        -8.8233
  25   2.0000      -0.304194        -8.2775
  26   2.0000      -0.298350        -8.1185
  27   2.0000      -0.210379        -5.7247
  28   0.0000      -0.046827        -1.2742
  29   0.0000       0.067186         1.8282
  30   0.0000       0.110372         3.0034
  31   0.0000       0.121034         3.2935
  32   0.0000       0.129521         3.5244

MULLIKEN ATOMIC CHARGES
-----------------------
   0 C :   -0.481277
   1 C :    0.271705
   2 O :   -0.356512
   3 C :    0.133724
   4 C :   -0.505965
   5 C :   -0.508209
   6 C :   -0.513658
   7 H :    0.162299
   8 H :    0.163627
   9 H :    0.179787
  10 H :    0.153609
  11 H :    0.155705
  12 H :    0.181454
  13 H :    0.155237
  14 H :    0.182278
  15 H :    0.153388
  16 H :    0.160045
  17 H :    0.157307
  18 H :    0.155457
Sum of atomic charges:    0.0000000

LOEWDIN ATOMIC CHARGES
----------------------
   0 C :   -0.375440
   1 C :    0.231806
   2 O :   -0.476025
   3 C :   -0.194314
   4 C :   -0.379335
   5 C :   -0.379765
   6 C :   -0.403030
   7 H :    0.174155
   8 H :    0.174214
   9 H :    0.175009
  10 H :    0.157971
  11 H :    0.156838
  12 H :    0.173559
  13 H :    0.156568
  14 H :    0.174094
  15 H :    0.158043
  16 H :    0.161556
  17 H :    0.157037
  18 H :    0.157058

  Mayer bond orders larger than 0.100000
B(  0-C ,  1-C ) :   0.9240 B(  0-C ,  7-H ) :   0.9479 B(  0-C ,  8-H ) :   0.9500
B(  0-C ,  9-H ) :   0.9854 B(  1-C ,  2-O ) :   1.9299 B(  1-C ,  3-C ) :   0.8381
B(  3-C ,  4-C ) :   0.9359 B(  3-C ,  5-C ) :   0.9369 B(  3-C ,  6-C ) :   0.8774
B(  4-C , 10-H ) :   0.9718 B(  4-C , 11-H ) :   0.9770 B(  4-C , 12-H ) :   0.9635
B(  5-C , 13-H ) :   0.9774 B(  5-C , 14-H ) :   0.9636 B(  5-C , 15-H ) :   0.9719
B(  6-C , 16-H ) :   0.9611 B(  6-C , 17-H ) :   0.9806 B(  6-C , 18-H ) :   0.9768

Dispersion correction           -0.005418068
FINAL SINGLE POINT ENERGY      -311.004651787487

DIPOLE MOMENT
-------------

Method             : SCF
Type of density    : Electron Density
Multiplicity       :   1
Irrep              :   0
Energy             :  -311.0086319307500844 Eh
Relativity type    :
Basis              : AO
                                X                 Y                 Z
Electronic contribution:     -4.966063846       2.304390534       2.034965892
Nuclear contribution   :      5.551302176      -3.000888915      -2.644194368
                        -----------------------------------------
Total Dipole Moment    :      0.585238329      -0.696498381      -0.609228476
                        -----------------------------------------
Magnitude (a.u.)       :      1.094885032
Magnitude (Debye)      :      2.782976585

Rotational constants in cm-1:             0.106998             0.077947             0.064710
Rotational constants in MHz :          3207.725977          2336.779935          1939.947947

                             ****ORCA TERMINATED NORMALLY****
TOTAL RUN TIME: 0 days 0 hours 0 minutes 40 seconds 133 msec
