                         Program Version 6.0.0  -   RELEASE  -
|  1> ! r2scan-3c def2/J RI DEFGRID2 scfconv6 printgap
|  2> %output
|  3>     printlevel normal
|  4> end
|  5> %cpcm
|  6>     smd true
|  7>     smdsolvent "water"
|  8> end
|  9> * xyz 0 1
| 10> C -1.6392135922 -0.9638501705 -0.8302745226
| 11> C -0.9013809732 0.0215059616 0.022739642
| 12> O -1.4950948431 0.8184939449 0.7260290621
| 13> C 0.6272006877 0.0075713693 -0.0003149768
| 14> C 1.0888576698 -0.2761686674 1.4372755586
| 15> C 1.0823812545 1.4152727662 -0.4128457161
| 16> C 1.2351910569 -1.0251138295 -0.9462210191
| 17> H -1.3723645241 -0.8215423348 -1.8737723783
| 18> H -1.3625769592 -1.9758202032 -0.5472503288
| 19> H -2.7098464173 -0.8267153305 -0.7025304391
| 20> H 0.7942786543 -1.2781709567 1.7419702603
| 21> H 2.1702629674 -0.1940525816 1.5047642183
| 22> H 0.6374962371 0.4385335493 2.121713379
| 23> H 2.1630477064 1.4969054335 -0.3336765797
| 24> H 0.623987592 2.1597931068 0.2341679136
| 25> H 0.7897380813 1.624749135 -1.439564583
| 26> H 2.3192621745 -0.9573461487 -0.892285452
| 27> H 0.9389698042 -0.8427114305 -1.9751635412
| 28> H 0.9485759088 -2.0352430027 -0.668326748
| 29> *
| 30>
| 31>                          ****END OF INPUT****

CARTESIAN COORDINATES (ANGSTROEM)
---------------------------------
  C     -1.639214   -0.963850   -0.830275
  C     -0.901381    0.021506    0.022740
  O     -1.495095    0.818494    0.726029
  C      0.627201    0.007571   -0.000315
  C      1.088858   -0.276169    1.437276
  C      1.082381    1.415273   -0.412846
  C      1.235191   -1.025114   -0.946221
  H     -1.372365   -0.821542   -1.873772
  H     -1.362577   -1.975820   -0.547250
  H     -2.709846   -0.826715   -0.702530
  H      0.794279   -1.278171    1.741970
  H      2.170263   -0.194053    1.504764
  H      0.637496    0.438534    2.121713
  H      2.163048    1.496905   -0.333677
  H      0.623988    2.159793    0.234168
  H      0.789738    1.624749   -1.439565
  H      2.319262   -0.957346   -0.892285
  H      0.938970   -0.842711   -1.975164
  H      0.948576   -2.035243   -0.668327

 Total Charge           Charge          ....    0
 Multiplicity           Mult            ....    1
 Number of Electrons    NEL             ....   56
 Basis Dimension        Dim             ....  198

ORBITAL ENERGIES
----------------

  NO   OCC          E(Eh)            E(eV)
   0   2.0000     -18.943968      -515.4916
   1   2.0000     -10.121791      -275.4279
   2   2.0000     -10.046748      -273.3859
   3   2.0000     -10.022111      -272.7155
   4   2.0000     -10.014896      -272.5192
   5   2.0000     -10.014405      -272.5058
   6   2.0000     -10.011110      -272.4162
   7   2.0000      -1.013502       -27.5788
   8   2.0000      -0.785787       -21.3824
   9   2.0000      -0.705033       -19.1849
  10   2.0000      -0.650627       -17.7045
  11   2.0000      -0.647184       -17.6108
  12   2.0000      -0.572228       -15.5711
  13   2.0000      -0.471076       -12.8186
  14   2.0000      -0.445580       -12.1248
  15   2.0000      -0.424696       -11.5566
  16   2.0000      -0.420610       -11.4454
  17   2.0000      -0.387771       -10.5518
  18   2.0000      -0.385512       -10.4903
  19   2.0000      -0.372458       -10.1351
  20   2.0000      -0.360353        -9.8057
  21   2.0000      -0.345726        -9.4077
  22   2.0000      -0.329141        -8.9564
  23   2.0000      -0.325682        -8.8622
  24   2.0000      -0.319548        -8.6953
  25   2.0000      -0.295237        -8.0338
  26   2.0000      -0.293644        -7.9904
  27   2.0000      -0.219711        -5.9787
  28   0.0000      -0.049119        -1.3366
  29   0.0000       0.079577         2.1654
  30   0.0000       0.122375         3.3300
  31   0.0000       0.132777         3.6131
  32   0.0000       0.137838         3.7508

MULLIKEN ATOMIC CHARGES
-----------------------
   0 C :   -0.527833
   1 C :    0.310472
   2 O :   -0.461408
   3 C :    0.202601
   4 C :   -0.549476
   5 C :   -0.552346
   6 C :   -0.570372
   7 H :    0.197886
   8 H :    0.199316
   9 H :    0.178758
  10 H :    0.176060
  11 H :    0.176156
  12 H :    0.170115
  13 H :    0.175734
  14 H :    0.170290
  15 H :    0.175580
  16 H :    0.173614
  17 H :    0.178199
  18 H :    0.176654
Sum of atomic charges:    0.0000000

LOEWDIN ATOMIC CHARGES
----------------------
   0 C :   -0.374391
   1 C :    0.250302
   2 O :   -0.552354
   3 C :   -0.185451
   4 C :   -0.384885
   5 C :   -0.385600
   6 C :   -0.406348
   7 H :    0.189179
   8 H :    0.189372
   9 H :    0.174294
  10 H :    0.164747
  11 H :    0.164297
  12 H :    0.167413
  13 H :    0.164020
  14 H :    0.167710
  15 H :    0.164605
  16 H :    0.165095
  17 H :    0.163978
  18 H :    0.164020

  Mayer bond orders larger than 0.100000
B(  0-C ,  1-C ) :   0.9325 B(  0-C ,  7-H ) :   0.9334 B(  0-C ,  8-H ) :   0.9347
B(  0-C ,  9-H ) :   0.9835 B(  1-C ,  2-O ) :   1.8575 B(  1-C ,  3-C ) :   0.8535
B(  3-C ,  4-C ) :   0.9133 B(  3-C ,  5-C ) :   0.9138 B(  3-C ,  6-C ) :   0.8616
B(  4-C , 10-H ) :   0.9699 B(  4-C , 11-H ) :   0.9719 B(  4-C , 12-H ) :   0.9647
B(  5-C , 13-H ) :   0.9725 B(  5-C , 14-H ) :   0.9652 B(  5-C , 15-H ) :   0.9702
B(  6-C , 16-H ) :   0.9590 B(  6-C , 17-H ) :   0.9768 B(  6-C , 18-H ) :   0.9740

Dispersion correction           -0.005418068
FINAL SINGLE POINT ENERGY      -311.010371652820

DIPOLE MOMENT
-------------

Method             : SCF
Type of density    : Electron Density
Multiplicity       :   1
Irrep              :   0
Energy             :  -311.0143517960837016 Eh
Relativity type    :
Basis              : AO
                                X                 Y                 Z
Electronic contribution:     -4.674257442       1.906504782       1.685805060
Nuclear contribution   :      5.551302176      -3.000888915      -2.644194368
                        -----------------------------------------
Total Dipole Moment    :      0.877044733      -1.094384133      -0.958389308
                        -----------------------------------------
Magnitude (a.u.)       :      1.698644801
Magnitude (Debye)      :      4.317611957

Rotational constants in cm-1:             0.106998             0.077947             0.064710
Rotational constants in MHz :          3207.725977          2336.779935          1939.947947

                             ****ORCA TERMINATED NORMALLY****
TOTAL RUN TIME: 0 days 0 hours 0 minutes 41 seconds 60 msec
