                         Program Version 6.0.0  -   RELEASE  -
|  1> ! wb97x-v def2-tzvp def2/J RIJCOSX DEFGRID2 scfconv7 GCP(DFT/TZ) printgap
|  2> %output
|  3>     printlevel normal
|  4> end
|  5> * xyz 0 1
|  6> C -1.3705145822742648 -0.8924395692637821 0.3843104314957872
|  7> C -0.5831659790142766 0.0777408184571127 -0.4966242996019232
|  8> C -0.6985752232600704 1.5126285331870704 0.021187957036006767
|  9> C 0.8767081611890973 -0.34947581823952406 -0.6445459754252318
| 10> O 1.5977045214173433 -0.38321496734363736 0.6038682005444848
| 11> H -2.429127837565032 -0.616488220527096 0.4168294553874381
| 12> H -0.9927796555182395 -0.8813017972323662 1.4121849452433812
| 13> H -1.2991743378629173 -1.9186804866083724 0.0085343467856395
| 14> H -1.0008342034815176 0.043570535778057355 -1.5131041283958955
| 15> H -1.7439602965015135 1.8374448627608067 0.03145936332974548
| 16> H -0.13291577719071723 2.2111589213057576 -0.6054677149831169
| 17> H -0.32312527516701084 1.5939385797780776 1.048509306492761
| 18> H 0.9285539509016428 -1.369556671757331 -1.0398040706449292
| 19> H 1.3902225046680439 0.3169127756670657 -1.3527477606502234
| 20> H 1.6676965104259176 0.5252304541012073 0.9229139730459005
| 21> *
| 22>
| 23>                          ****END OF INPUT****

CARTESIAN COORDINATES (ANGSTROEM)
---------------------------------
  C     -1.370515   -0.892440    0.384310
  C     -0.583166    0.077741   -0.496624
  C     -0.698575    1.512629    0.021188
  C      0.876708   -0.349476   -0.644546
  O      1.597705   -0.383215    0.603868
  H     -2.429128   -0.616488    0.416829
  H     -0.992780   -0.881302    1.412185
  H     -1.299174   -1.918680    0.008534
  H     -1.000834    0.043571   -1.513104
  H     -1.743960    1.837445    0.031459
  H     -0.132916    2.211159   -0.605468
  H     -0.323125    1.593939    1.048509
  H      0.928554   -1.369557   -1.039804
  H      1.390223    0.316913   -1.352748
  H      1.667697    0.525230    0.922914

 Total Charge           Charge          ....    0
 Multiplicity           Mult            ....    1
 Number of Electrons    NEL             ....   42
 Basis Dimension        Dim             ....  215

ORBITAL ENERGIES
----------------

  NO   OCC          E(Eh)            E(eV)
   0   2.0000     -21.667957      -589.6151
   1   2.0000     -12.088423      -328.9427
   2   2.0000     -12.051814      -327.9465
   3   2.0000     -12.040924      -327.6502
   4   2.0000     -12.030967      -327.3792
   5   2.0000      -1.665685       -45.3256
   6   2.0000      -1.314342       -35.7651
   7   2.0000      -1.195299       -32.5257
   8   2.0000      -1.178618       -32.0718
   9   2.0000      -1.072397       -29.1814
  10   2.0000      -1.001903       -27.2632
  11   2.0000      -0.949230       -25.8299
  12   2.0000      -0.928957       -25.2782
  13   2.0000      -0.872160       -23.7327
  14   2.0000      -0.866929       -23.5903
  15   2.0000      -0.849136       -23.1062
  16   2.0000      -0.811461       -22.0810
  17   2.0000      -0.798869       -21.7383
  18   2.0000      -0.776106       -21.1189
  19   2.0000      -0.772864       -21.0307
  20   2.0000      -0.760728       -20.7005
  21   0.0000      -0.141131        -3.8404
  22   0.0000      -0.052901        -1.4395
  23   0.0000      -0.015251        -0.4150
  24   0.0000      -0.011730        -0.3192
  25   0.0000      -0.009110        -0.2479

MULLIKEN ATOMIC CHARGES
-----------------------
   0 C :   -0.330017
   1 C :   -0.009266
   2 C :   -0.393772
   3 C :   -0.035935
   4 O :   -0.454924
   5 H :    0.108844
   6 H :    0.113671
   7 H :    0.105462
   8 H :    0.063647
   9 H :    0.116998
  10 H :    0.116840
  11 H :    0.104975
  12 H :    0.098499
  13 H :    0.097464
  14 H :    0.297514
Sum of atomic charges:    0.0000000

LOEWDIN ATOMIC CHARGES
----------------------
   0 C :   -0.281451
   1 C :   -0.327392
   2 C :   -0.289924
   3 C :   -0.310953
   4 O :   -0.057412
   5 H :    0.116977
   6 H :    0.121555
   7 H :    0.118801
   8 H :    0.149619
   9 H :    0.121495
  10 H :    0.118132
  11 H :    0.115160
  12 H :    0.126406
  13 H :    0.114810
  14 H :    0.164178

  Mayer bond orders larger than 0.100000
B(  0-C ,  1-C ) :   0.9819 B(  0-C ,  5-H ) :   0.9811 B(  0-C ,  6-H ) :   0.9710
B(  0-C ,  7-H ) :   0.9787 B(  1-C ,  2-C ) :   0.9661 B(  1-C ,  3-C ) :   0.9767
B(  1-C ,  8-H ) :   0.9558 B(  2-C ,  9-H ) :   0.9813 B(  2-C , 10-H ) :   0.9789
B(  2-C , 11-H ) :   0.9775 B(  3-C ,  4-O ) :   0.9948 B(  3-C , 12-H ) :   0.9742
B(  3-C , 13-H ) :   0.9801 B(  4-O , 14-H ) :   0.9076

FINAL SINGLE POINT ENERGY      -233.677185180993

DIPOLE MOMENT
-------------

Method             : SCF
Type of density    : Electron Density
Multiplicity       :   1
Irrep              :   0
Energy             :  -233.6878539315932812 Eh
Relativity type    :
Basis              : AO
                                X                 Y                 Z
Electronic contribution:      3.383443025      -1.120927673       0.326210599
Nuclear contribution   :     -3.702568163       1.652887308      -0.639195031
                        -----------------------------------------
Total Dipole Moment    :     -0.319125137       0.531959635      -0.312984432
                        -----------------------------------------
Magnitude (a.u.)       :      0.694824555
Magnitude (Debye)      :      1.766103663

Rotational constants in cm-1:             0.207329             0.131046             0.104871
Rotational constants in MHz :          6215.573851          3928.666527          3143.940816

                             ****ORCA TERMINATED NORMALLY****
TOTAL RUN TIME: 0 days 0 hours 1 minutes 9 seconds 662 msec
