                         Program Version 6.0.0  -   RELEASE  -
|  1> ! wb97x-v def2-tzvp def2/J RIJCOSX DEFGRID2 scfconv7 GCP(DFT/TZ) printgap
|  2> %output
|  3>     printlevel normal
|  4> end
|  5> %cpcm
|  6>     smd true
|  7>     smdsolvent "water"
|  8> end
|  9> * xyz 0 1
| 10> C -1.3705145822742648 -0.8924395692637821 0.3843104314957872
| 11> C -0.5831659790142766 0.0777408184571127 -0.4966242996019232
| 12> C -0.6985752232600704 1.5126285331870704 0.021187957036006767
| 13> C 0.8767081611890973 -0.34947581823952406 -0.6445459754252318
| 14> O 1.5977045214173433 -0.38321496734363736 0.6038682005444848
| 15> H -2.429127837565032 -0.616488220527096 0.4168294553874381
| 16> H -0.9927796555182395 -0.8813017972323662 1.4121849452433812
| 17> H -1.2991743378629173 -1.9186804866083724 0.0085343467856395
| 18> H -1.0008342034815176 0.043570535778057355 -1.5131041283958955
| 19> H -1.7439602965015135 1.8374448627608067 0.03145936332974548
| 20> H -0.13291577719071723 2.2111589213057576 -0.6054677149831169
| 21> H -0.32312527516701084 1.5939385797780776 1.048509306492761
| 22> H 0.9285539509016428 -1.369556671757331 -1.0398040706449292
| 23> H 1.3902225046680439 0.3169127756670657 -1.3527477606502234
| 24> H 1.6676965104259176 0.5252304541012073 0.9229139730459005
| 25> *
| 26>
| 27>                          ****END OF INPUT****

CARTESIAN COORDINATES (ANGSTROEM)
---------------------------------
  C     -1.370515   -0.892440    0.384310
  C     -0.583166    0.077741   -0.496624
  C     -0.698575    1.512629    0.021188
  C      0.876708   -0.349476   -0.644546
  O      1.597705   -0.383215    0.603868
  H     -2.429128   -0.616488    0.416829
  H     -0.992780   -0.881302    1.412185
  H     -1.299174   -1.918680    0.008534
  H     -1.000834    0.043571   -1.513104
  H     -1.743960    1.837445    0.031459
  H     -0.132916    2.211159   -0.605468
  H     -0.323125    1.593939    1.048509
  H      0.928554   -1.369557   -1.039804
  H      1.390223    0.316913   -1.352748
  H      1.667697    0.525230    0.922914

 Total Charge           Charge          ....    0
 Multiplicity           Mult            ....    1
 Number of Electrons    NEL             ....   42
 Basis Dimension        Dim             ....  215

ORBITAL ENERGIES
----------------

  NO   OCC          E(Eh)            E(eV)
   0   2.0000     -21.670895      -589.6950
   1   2.0000     -12.080884      -328.7376
   2   2.0000     -12.041065      -327.6540
   3   2.0000     -12.025165      -327.2214
   4   2.0000     -12.023378      -327.1728
   5   2.0000      -1.668947       -45.4144
   6   2.0000      -1.304280       -35.4913
   7   2.0000      -1.189263       -32.3615
   8   2.0000      -1.168166       -31.7874
   9   2.0000      -1.067415       -29.0458
  10   2.0000      -1.001351       -27.2481
  11   2.0000      -0.949729       -25.8434
  12   2.0000      -0.928050       -25.2535
  13   2.0000      -0.863898       -23.5079
  14   2.0000      -0.857015       -23.3206
  15   2.0000      -0.842345       -22.9214
  16   2.0000      -0.800806       -21.7910
  17   2.0000      -0.788350       -21.4521
  18   2.0000      -0.766151       -20.8480
  19   2.0000      -0.763321       -20.7710
  20   2.0000      -0.750765       -20.4294
  21   0.0000      -0.135316        -3.6821
  22   0.0000      -0.032077        -0.8729
  23   0.0000      -0.004363        -0.1187
  24   0.0000       0.000237         0.0065
  25   0.0000       0.002903         0.0790

MULLIKEN ATOMIC CHARGES
-----------------------
   0 C :   -0.401498
   1 C :    0.006924
   2 C :   -0.425997
   3 C :   -0.045502
   4 O :   -0.568719
   5 H :    0.129063
   6 H :    0.114571
   7 H :    0.125500
   8 H :    0.080727
   9 H :    0.130374
  10 H :    0.129836
  11 H :    0.124235
  12 H :    0.120917
  13 H :    0.120888
  14 H :    0.358680
Sum of atomic charges:    0.0000000

LOEWDIN ATOMIC CHARGES
----------------------
   0 C :   -0.291212
   1 C :   -0.324175
   2 C :   -0.291583
   3 C :   -0.309829
   4 O :   -0.100324
   5 H :    0.121115
   6 H :    0.118114
   7 H :    0.120887
   8 H :    0.155125
   9 H :    0.122477
  10 H :    0.121945
  11 H :    0.120300
  12 H :    0.129021
  13 H :    0.122614
  14 H :    0.185524

  Mayer bond orders larger than 0.100000
B(  0-C ,  1-C ) :   0.9701 B(  0-C ,  5-H ) :   0.9794 B(  0-C ,  6-H ) :   0.9732
B(  0-C ,  7-H ) :   0.9777 B(  1-C ,  2-C ) :   0.9741 B(  1-C ,  3-C ) :   0.9769
B(  1-C ,  8-H ) :   0.9539 B(  2-C ,  9-H ) :   0.9791 B(  2-C , 10-H ) :   0.9764
B(  2-C , 11-H ) :   0.9706 B(  3-C ,  4-O ) :   0.9522 B(  3-C , 12-H ) :   0.9746
B(  3-C , 13-H ) :   0.9820 B(  4-O , 14-H ) :   0.8717

FINAL SINGLE POINT ENERGY      -233.684238404666

DIPOLE MOMENT
-------------

Method             : SCF
Type of density    : Electron Density
Multiplicity       :   1
Irrep              :   0
Energy             :  -233.6949071552658950 Eh
Relativity type    :
Basis              : AO
                                X                 Y                 Z
Electronic contribution:      3.303252336      -0.899582443       0.174290946
Nuclear contribution   :     -3.702568163       1.652887308      -0.639195031
                        -----------------------------------------
Total Dipole Moment    :     -0.399315827       0.753304866      -0.464904085
                        -----------------------------------------
Magnitude (a.u.)       :      0.971111301
Magnitude (Debye)      :      2.468368762

Rotational constants in cm-1:             0.207329             0.131046             0.104871
Rotational constants in MHz :          6215.573851          3928.666527          3143.940816

                             ****ORCA TERMINATED NORMALLY****
TOTAL RUN TIME: 0 days 0 hours 1 minutes 15 seconds 695 msec
