                         Program Version 6.0.0  -   RELEASE  -
|  1> ! r2scan-3c def2/J RI DEFGRID2 scfconv6 printgap
|  2> %output
|  3>     printlevel normal
|  4> end
|  5> * xyz 0 1
|  6> C -2.5522675706 -0.884783973 0.3236379777
|  7> C -1.121851023 -0.4230179572 0.6375816682
|  8> H -0.9978308545 -0.3268973324 1.7264675149
|  9> C -0.8332457534 0.9397026922 -0.0046109094
| 10> H -1.0806652325 0.8742387539 -1.0769424808
| 11> C 0.6507860047 1.2932528262 0.16067528
| 12> H 0.8459220974 1.4916541826 1.2217231261
| 13> C 1.564426413 0.1456111172 -0.2925221414
| 14> H 1.5003275344 0.0186453666 -1.3851401616
| 15> C 1.117729641 -1.1773086588 0.3461562288
| 16> H 1.3163929491 -1.1165455943 1.4357781867
| 17> O -0.2545916211 -1.4192046687 0.1305118688
| 18> O 1.8180389636 -2.2051746214 -0.2445454447
| 19> O 2.8916354877 0.3795034038 0.099071085
| 20> O 0.9735966837 2.492792975 -0.5031844674
| 21> O -1.6499248897 1.8923174366 0.6287259805
| 22> O -2.7444888863 -1.1022854953 -1.0488796443
| 23> H -3.2456734057 -0.0968302709 0.6200467675
| 24> H -2.7625784302 -1.796798274 0.8943416394
| 25> H 1.5102248142 -3.0576933504 0.1025157212
| 26> H 3.1400259682 1.2787535347 -0.1699280633
| 27> H 0.8171198632 2.3940112569 -1.4548851688
| 28> H -1.3567705434 2.778730306 0.3651990988
| 29> H -2.1090020958 -1.7740022671 -1.3382597922
| 30> *
| 31>
| 32>                          ****END OF INPUT****

CARTESIAN COORDINATES (ANGSTROEM)
---------------------------------
  C     -2.552268   -0.884784    0.323638
  C     -1.121851   -0.423018    0.637582
  H     -0.997831   -0.326897    1.726468
  C     -0.833246    0.939703   -0.004611
  H     -1.080665    0.874239   -1.076942
  C      0.650786    1.293253    0.160675
  H      0.845922    1.491654    1.221723
  C      1.564426    0.145611   -0.292522
  H      1.500328    0.018645   -1.385140
  C      1.117730   -1.177309    0.346156
  H      1.316393   -1.116546    1.435778
  O     -0.254592   -1.419205    0.130512
  O      1.818039   -2.205175   -0.244545
  O      2.891635    0.379503    0.099071
  O      0.973597    2.492793   -0.503184
  O     -1.649925    1.892317    0.628726
  O     -2.744489   -1.102285   -1.048880
  H     -3.245673   -0.096830    0.620047
  H     -2.762578   -1.796798    0.894342
  H      1.510225   -3.057693    0.102516
  H      3.140026    1.278754   -0.169928
  H      0.817120    2.394011   -1.454885
  H     -1.356771    2.778730    0.365199
  H     -2.109002   -1.774002   -1.338260

 Total Charge           Charge          ....    0
 Multiplicity           Mult            ....    1
 Number of Electrons    NEL             ....   96
 Basis Dimension        Dim             ....  318

ORBITAL ENERGIES
----------------

  NO   OCC          E(Eh)            E(eV)
   0   2.0000     -18.980672      -516.4904
   1   2.0000     -18.978535      -516.4322
   2   2.0000     -18.969958      -516.1988
   3   2.0000     -18.962576      -515.9979
   4   2.0000     -18.959595      -515.9168
   5   2.0000     -18.952044      -515.7113
   6   2.0000     -10.145885      -276.0836
   7   2.0000     -10.098580      -274.7963
   8   2.0000     -10.097387      -274.7639
   9   2.0000     -10.095736      -274.7190
  10   2.0000     -10.093838      -274.6673
  11   2.0000     -10.080754      -274.3113
  12   2.0000      -1.058014       -28.7900
  13   2.0000      -1.026197       -27.9242
  14   2.0000      -1.005984       -27.3742
  15   2.0000      -0.994320       -27.0568
  16   2.0000      -0.992150       -26.9978
  17   2.0000      -0.981666       -26.7125
  18   2.0000      -0.755472       -20.5574
  19   2.0000      -0.741716       -20.1831
  20   2.0000      -0.664650       -18.0861
  21   2.0000      -0.623213       -16.9585
  22   2.0000      -0.599129       -16.3031
  23   2.0000      -0.565050       -15.3758
  24   2.0000      -0.529124       -14.3982
  25   2.0000      -0.513116       -13.9626
  26   2.0000      -0.505614       -13.7585
  27   2.0000      -0.480267       -13.0687
  28   2.0000      -0.472483       -12.8569
  29   2.0000      -0.460458       -12.5297
  30   2.0000      -0.449588       -12.2339
  31   2.0000      -0.440847       -11.9961
  32   2.0000      -0.405140       -11.0244
  33   2.0000      -0.395112       -10.7516
  34   2.0000      -0.390088       -10.6148
  35   2.0000      -0.384511       -10.4631
  36   2.0000      -0.348406        -9.4806
  37   2.0000      -0.342887        -9.3304
  38   2.0000      -0.329764        -8.9733
  39   2.0000      -0.320200        -8.7131
  40   2.0000      -0.311802        -8.4846
  41   2.0000      -0.299474        -8.1491
  42   2.0000      -0.282072        -7.6756
  43   2.0000      -0.275147        -7.4871
  44   2.0000      -0.262994        -7.1564
  45   2.0000      -0.246951        -6.7199
  46   2.0000      -0.238445        -6.4884
  47   2.0000      -0.232998        -6.3402
  48   0.0000       0.024014         0.6535
  49   0.0000       0.050947         1.3863
  50   0.0000       0.053981         1.4689
  51   0.0000       0.066740         1.8161
  52   0.0000       0.078090         2.1250

MULLIKEN ATOMIC CHARGES
-----------------------
   0 C :   -0.248292
   1 C :    0.049269
   2 H :    0.168836
   3 C :   -0.045391
   4 H :    0.191016
   5 C :   -0.128818
   6 H :    0.180462
   7 C :    0.080743
   8 H :    0.165676
   9 C :   -0.093040
  10 H :    0.144210
  11 O :   -0.222540
  12 O :   -0.380221
  13 O :   -0.415358
  14 O :   -0.428426
  15 O :   -0.432909
  16 O :   -0.426445
  17 H :    0.159797
  18 H :    0.139313
  19 H :    0.307903
  20 H :    0.310098
  21 H :    0.304059
  22 H :    0.308903
  23 H :    0.311157
Sum of atomic charges:   -0.0000000

LOEWDIN ATOMIC CHARGES
----------------------
   0 C :    0.044572
   1 C :    0.116290
   2 H :    0.187704
   3 C :    0.101777
   4 H :    0.186517
   5 C :    0.092931
   6 H :    0.204652
   7 C :    0.117196
   8 H :    0.184023
   9 C :    0.309140
  10 H :    0.182281
  11 O :   -0.689305
  12 O :   -0.479187
  13 O :   -0.562142
  14 O :   -0.579765
  15 O :   -0.582810
  16 O :   -0.591111
  17 H :    0.196442
  18 H :    0.165034
  19 H :    0.283352
  20 H :    0.281918
  21 H :    0.273531
  22 H :    0.281598
  23 H :    0.275360

  Mayer bond orders larger than 0.100000
B(  0-C ,  1-C ) :   0.9400 B(  0-C , 16-O ) :   1.0295 B(  0-C , 17-H ) :   0.9618
B(  0-C , 18-H ) :   0.9827 B(  1-C ,  2-H ) :   0.9312 B(  1-C ,  3-C ) :   0.8305
B(  1-C , 11-O ) :   0.7694 B(  1-C , 16-O ) :  -0.1160 B(  3-C ,  4-H ) :   1.0005
B(  3-C ,  5-C ) :   0.8419 B(  3-C , 15-O ) :   0.8541 B(  5-C ,  6-H ) :   0.9701
B(  5-C ,  7-C ) :   0.8786 B(  5-C , 14-O ) :   1.0623 B(  7-C ,  8-H ) :   0.9601
B(  7-C ,  9-C ) :   0.8465 B(  7-C , 13-O ) :   0.8849 B(  9-C , 10-H ) :   1.0167
B(  9-C , 11-O ) :   0.9231 B(  9-C , 12-O ) :   1.0836 B( 12-O , 19-H ) :   0.8808
B( 13-O , 20-H ) :   0.8760 B( 14-O , 21-H ) :   0.8855 B( 15-O , 22-H ) :   0.8783
B( 16-O , 23-H ) :   0.8752

Dispersion correction           -0.008055148
FINAL SINGLE POINT ENERGY      -687.075827035888

DIPOLE MOMENT
-------------

Method             : SCF
Type of density    : Electron Density
Multiplicity       :   1
Irrep              :   0
Energy             :  -687.0871679671374750 Eh
Relativity type    :
Basis              : AO
                                X                 Y                 Z
Electronic contribution:      2.359562060      -0.532519140      -0.870519083
Nuclear contribution   :     -2.257401872       0.626571510       0.868839192
                        -----------------------------------------
Total Dipole Moment    :      0.102160188       0.094052370      -0.001679891
                        -----------------------------------------
Magnitude (a.u.)       :      0.138871791
Magnitude (Debye)      :      0.352984040

Rotational constants in cm-1:             0.038887             0.027262             0.017820
Rotational constants in MHz :          1165.817356           817.294728           534.219406

                             ****ORCA TERMINATED NORMALLY****
TOTAL RUN TIME: 0 days 0 hours 0 minutes 48 seconds 258 msec
