                         Program Version 6.0.0  -   RELEASE  -
|  1> ! r2scan-3c def2/J RI DEFGRID2 scfconv6 printgap
|  2> %output
|  3>     printlevel normal
|  4> end
|  5> * xyz 0 1
|  6> C -2.7429404033 0.754539521 -0.3681128356
|  7> C -1.956856746 -0.3620734168 0.3066233968
|  8> C -0.4686647732 -0.2208489437 0.145377873
|  9> C 0.3690224633 -1.3165309971 0.3592724552
| 10> C 1.7352233681 -1.1569803584 0.2235362162
| 11> C 2.2301800737 0.0920954507 -0.1241863767
| 12> C 1.3205043301 1.1177497842 -0.3151616552
| 13> N 0.0114716579 0.9719690262 -0.1845944089
| 14> H -2.4456535016 1.7173074799 0.0350859912
| 15> H -3.8082075314 0.6132234731 -0.2055976282
| 16> H -2.5481152014 0.7603933411 -1.4371288828
| 17> H -2.2622427097 -1.3321303749 -0.0920205535
| 18> H -2.1787411021 -0.365877877 1.3780666101
| 19> H -0.0533519049 -2.2730733875 0.6268618277
| 20> H 2.4045463077 -1.9895717511 0.3829974636
| 21> H 3.2878034608 0.263312648 -0.2440379178
| 22> H 1.6473683011 2.1128372243 -0.5882205772
| 23> *
| 24>
| 25>                          ****END OF INPUT****

CARTESIAN COORDINATES (ANGSTROEM)
---------------------------------
  C     -2.742940    0.754540   -0.368113
  C     -1.956857   -0.362073    0.306623
  C     -0.468665   -0.220849    0.145378
  C      0.369022   -1.316531    0.359272
  C      1.735223   -1.156980    0.223536
  C      2.230180    0.092095   -0.124186
  C      1.320504    1.117750   -0.315162
  N      0.011472    0.971969   -0.184594
  H     -2.445654    1.717307    0.035086
  H     -3.808208    0.613223   -0.205598
  H     -2.548115    0.760393   -1.437129
  H     -2.262243   -1.332130   -0.092021
  H     -2.178741   -0.365878    1.378067
  H     -0.053352   -2.273073    0.626862
  H      2.404546   -1.989572    0.382997
  H      3.287803    0.263313   -0.244038
  H      1.647368    2.112837   -0.588221

 Total Charge           Charge          ....    0
 Multiplicity           Mult            ....    1
 Number of Electrons    NEL             ....   58
 Basis Dimension        Dim             ....  202

ORBITAL ENERGIES
----------------

  NO   OCC          E(Eh)            E(eV)
   0   2.0000     -14.149173      -385.0186
   1   2.0000     -10.071878      -274.0697
   2   2.0000     -10.064067      -273.8572
   3   2.0000     -10.051696      -273.5206
   4   2.0000     -10.040213      -273.2081
   5   2.0000     -10.039926      -273.2003
   6   2.0000     -10.031800      -272.9792
   7   2.0000     -10.010312      -272.3944
   8   2.0000      -0.914066       -24.8730
   9   2.0000      -0.773111       -21.0374
  10   2.0000      -0.761500       -20.7215
  11   2.0000      -0.701296       -19.0832
  12   2.0000      -0.614731       -16.7277
  13   2.0000      -0.598978       -16.2990
  14   2.0000      -0.555478       -15.1153
  15   2.0000      -0.486491       -13.2381
  16   2.0000      -0.453982       -12.3535
  17   2.0000      -0.430639       -11.7183
  18   2.0000      -0.422378       -11.4935
  19   2.0000      -0.396767       -10.7966
  20   2.0000      -0.380653       -10.3581
  21   2.0000      -0.366902        -9.9839
  22   2.0000      -0.345262        -9.3950
  23   2.0000      -0.329886        -8.9766
  24   2.0000      -0.315521        -8.5858
  25   2.0000      -0.310417        -8.4469
  26   2.0000      -0.269825        -7.3423
  27   2.0000      -0.236249        -6.4287
  28   2.0000      -0.220034        -5.9874
  29   0.0000      -0.049840        -1.3562
  30   0.0000      -0.037891        -1.0311
  31   0.0000       0.078460         2.1350
  32   0.0000       0.101103         2.7512
  33   0.0000       0.108637         2.9562

MULLIKEN ATOMIC CHARGES
-----------------------
   0 C :   -0.481153
   1 C :   -0.294399
   2 C :    0.224319
   3 C :   -0.214917
   4 C :   -0.162178
   5 C :   -0.108489
   6 C :   -0.118743
   7 N :   -0.183713
   8 H :    0.166406
   9 H :    0.140096
  10 H :    0.150499
  11 H :    0.140183
  12 H :    0.157071
  13 H :    0.153520
  14 H :    0.148304
  15 H :    0.149874
  16 H :    0.133321
Sum of atomic charges:    0.0000000

LOEWDIN ATOMIC CHARGES
----------------------
   0 C :   -0.405883
   1 C :   -0.260431
   2 C :    0.135005
   3 C :   -0.142257
   4 C :   -0.123063
   5 C :   -0.158795
   6 C :    0.084809
   7 N :   -0.624448
   8 H :    0.165724
   9 H :    0.146859
  10 H :    0.156703
  11 H :    0.162811
  12 H :    0.170917
  13 H :    0.170662
  14 H :    0.168762
  15 H :    0.169232
  16 H :    0.183394

  Mayer bond orders larger than 0.100000
B(  0-C ,  1-C ) :   0.9242 B(  0-C ,  8-H ) :   0.9698 B(  0-C ,  9-H ) :   0.9712
B(  0-C , 10-H ) :   0.9821 B(  1-C ,  2-C ) :   0.9034 B(  1-C , 11-H ) :   0.9815
B(  1-C , 12-H ) :   0.9374 B(  2-C ,  3-C ) :   1.3948 B(  2-C ,  7-N ) :   1.3724
B(  3-C ,  4-C ) :   1.4565 B(  3-C , 13-H ) :   0.9181 B(  4-C ,  5-C ) :   1.3860
B(  4-C , 14-H ) :   0.9514 B(  5-C ,  6-C ) :   1.3746 B(  5-C , 15-H ) :   0.9366
B(  6-C ,  7-N ) :   1.4578 B(  6-C , 16-H ) :   0.9824

Dispersion correction           -0.005191612
FINAL SINGLE POINT ENERGY      -326.818656795002

DIPOLE MOMENT
-------------

Method             : SCF
Type of density    : Electron Density
Multiplicity       :   1
Irrep              :   0
Energy             :  -326.8208006419265530 Eh
Relativity type    :
Basis              : AO
                                X                 Y                 Z
Electronic contribution:      5.900908956      -0.137584026       0.283730310
Nuclear contribution   :     -5.588226035      -0.457731191      -0.136102458
                        -----------------------------------------
Total Dipole Moment    :      0.312682921      -0.595315217       0.147627852
                        -----------------------------------------
Magnitude (a.u.)       :      0.688451014
Magnitude (Debye)      :      1.749903411

Rotational constants in cm-1:             0.165566             0.052255             0.040571
Rotational constants in MHz :          4963.543458          1566.570262          1216.300064

                             ****ORCA TERMINATED NORMALLY****
TOTAL RUN TIME: 0 days 0 hours 0 minutes 22 seconds 342 msec
