                         Program Version 6.0.0  -   RELEASE  -
|  1> ! r2scan-3c def2/J RI DEFGRID2 scfconv6 printgap
|  2> %output
|  3>     printlevel normal
|  4> end
|  5> %cpcm
|  6>     smd true
|  7>     smdsolvent "water"
|  8> end
|  9> * xyz 0 1
| 10> C -2.7429404033 0.754539521 -0.3681128356
| 11> C -1.956856746 -0.3620734168 0.3066233968
| 12> C -0.4686647732 -0.2208489437 0.145377873
| 13> C 0.3690224633 -1.3165309971 0.3592724552
| 14> C 1.7352233681 -1.1569803584 0.2235362162
| 15> C 2.2301800737 0.0920954507 -0.1241863767
| 16> C 1.3205043301 1.1177497842 -0.3151616552
| 17> N 0.0114716579 0.9719690262 -0.1845944089
| 18> H -2.4456535016 1.7173074799 0.0350859912
| 19> H -3.8082075314 0.6132234731 -0.2055976282
| 20> H -2.5481152014 0.7603933411 -1.4371288828
| 21> H -2.2622427097 -1.3321303749 -0.0920205535
| 22> H -2.1787411021 -0.365877877 1.3780666101
| 23> H -0.0533519049 -2.2730733875 0.6268618277
| 24> H 2.4045463077 -1.9895717511 0.3829974636
| 25> H 3.2878034608 0.263312648 -0.2440379178
| 26> H 1.6473683011 2.1128372243 -0.5882205772
| 27> *
| 28>
| 29>                          ****END OF INPUT****

CARTESIAN COORDINATES (ANGSTROEM)
---------------------------------
  C     -2.742940    0.754540   -0.368113
  C     -1.956857   -0.362073    0.306623
  C     -0.468665   -0.220849    0.145378
  C      0.369022   -1.316531    0.359272
  C      1.735223   -1.156980    0.223536
  C      2.230180    0.092095   -0.124186
  C      1.320504    1.117750   -0.315162
  N      0.011472    0.971969   -0.184594
  H     -2.445654    1.717307    0.035086
  H     -3.808208    0.613223   -0.205598
  H     -2.548115    0.760393   -1.437129
  H     -2.262243   -1.332130   -0.092021
  H     -2.178741   -0.365878    1.378067
  H     -0.053352   -2.273073    0.626862
  H      2.404546   -1.989572    0.382997
  H      3.287803    0.263313   -0.244038
  H      1.647368    2.112837   -0.588221

 Total Charge           Charge          ....    0
 Multiplicity           Mult            ....    1
 Number of Electrons    NEL             ....   58
 Basis Dimension        Dim             ....  202

ORBITAL ENERGIES
----------------

  NO   OCC          E(Eh)            E(eV)
   0   2.0000     -14.151909      -385.0930
   1   2.0000     -10.070992      -274.0456
   2   2.0000     -10.062087      -273.8033
   3   2.0000     -10.046090      -273.3680
   4   2.0000     -10.035156      -273.0705
   5   2.0000     -10.034809      -273.0610
   6   2.0000     -10.025850      -272.8172
   7   2.0000     -10.009403      -272.3697
   8   2.0000      -0.915758       -24.9190
   9   2.0000      -0.770027       -20.9535
  10   2.0000      -0.758884       -20.6503
  11   2.0000      -0.698505       -19.0073
  12   2.0000      -0.611635       -16.6434
  13   2.0000      -0.596126       -16.2214
  14   2.0000      -0.551769       -15.0144
  15   2.0000      -0.481018       -13.0892
  16   2.0000      -0.450420       -12.2566
  17   2.0000      -0.424385       -11.5481
  18   2.0000      -0.419175       -11.4063
  19   2.0000      -0.392683       -10.6854
  20   2.0000      -0.375337       -10.2134
  21   2.0000      -0.367274        -9.9940
  22   2.0000      -0.340631        -9.2691
  23   2.0000      -0.326931        -8.8962
  24   2.0000      -0.313237        -8.5236
  25   2.0000      -0.306991        -8.3536
  26   2.0000      -0.270370        -7.3571
  27   2.0000      -0.234838        -6.3903
  28   2.0000      -0.224985        -6.1222
  29   0.0000      -0.049465        -1.3460
  30   0.0000      -0.036566        -0.9950
  31   0.0000       0.082168         2.2359
  32   0.0000       0.106309         2.8928
  33   0.0000       0.115090         3.1317

MULLIKEN ATOMIC CHARGES
-----------------------
   0 C :   -0.532123
   1 C :   -0.290945
   2 C :    0.207947
   3 C :   -0.233240
   4 C :   -0.178257
   5 C :   -0.146676
   6 C :   -0.135752
   7 N :   -0.229050
   8 H :    0.161437
   9 H :    0.157861
  10 H :    0.162876
  11 H :    0.162782
  12 H :    0.176755
  13 H :    0.187362
  14 H :    0.184708
  15 H :    0.184883
  16 H :    0.159432
Sum of atomic charges:    0.0000000

LOEWDIN ATOMIC CHARGES
----------------------
   0 C :   -0.414988
   1 C :   -0.260022
   2 C :    0.130312
   3 C :   -0.141290
   4 C :   -0.121792
   5 C :   -0.161077
   6 C :    0.074749
   7 N :   -0.664050
   8 H :    0.160271
   9 H :    0.152960
  10 H :    0.156561
  11 H :    0.171830
  12 H :    0.178085
  13 H :    0.183394
  14 H :    0.181831
  15 H :    0.181448
  16 H :    0.191777

  Mayer bond orders larger than 0.100000
B(  0-C ,  1-C ) :   0.8901 B(  0-C ,  8-H ) :   0.9723 B(  0-C ,  9-H ) :   0.9669
B(  0-C , 10-H ) :   0.9853 B(  1-C ,  2-C ) :   0.9123 B(  1-C , 11-H ) :   0.9734
B(  1-C , 12-H ) :   0.9307 B(  2-C ,  3-C ) :   1.3895 B(  2-C ,  7-N ) :   1.3637
B(  3-C ,  4-C ) :   1.4307 B(  3-C , 13-H ) :   0.9229 B(  4-C ,  5-C ) :   1.3594
B(  4-C , 14-H ) :   0.9528 B(  5-C ,  6-C ) :   1.3753 B(  5-C , 15-H ) :   0.9394
B(  6-C ,  7-N ) :   1.4461 B(  6-C , 16-H ) :   0.9717

Dispersion correction           -0.005191612
FINAL SINGLE POINT ENERGY      -326.823226643906

DIPOLE MOMENT
-------------

Method             : SCF
Type of density    : Electron Density
Multiplicity       :   1
Irrep              :   0
Energy             :  -326.8253704908312329 Eh
Relativity type    :
Basis              : AO
                                X                 Y                 Z
Electronic contribution:      6.021658189      -0.485348355       0.372477257
Nuclear contribution   :     -5.588226035      -0.457731191      -0.136102458
                        -----------------------------------------
Total Dipole Moment    :      0.433432153      -0.943079546       0.236374799
                        -----------------------------------------
Magnitude (a.u.)       :      1.064488378
Magnitude (Debye)      :      2.705714430

Rotational constants in cm-1:             0.165566             0.052255             0.040571
Rotational constants in MHz :          4963.543458          1566.570262          1216.300064

                             ****ORCA TERMINATED NORMALLY****
TOTAL RUN TIME: 0 days 0 hours 0 minutes 31 seconds 507 msec
