                         Program Version 6.0.0  -   RELEASE  -
|  1> ! wb97x-v def2-tzvp def2/J RIJCOSX DEFGRID2 scfconv7 GCP(DFT/TZ) printgap
|  2> %output
|  3>     printlevel normal
|  4> end
|  5> * xyz 0 1
|  6> C 3.2401984682677263 -0.04626556940589913 1.0061541150683433
|  7> C 1.9214439569018176 -0.08655737713328782 0.3163982690806129
|  8> C 1.3437831757152683 1.0274112926959096 -0.19096877970146553
|  9> C 0.035400981411230915 1.0158157027175412 -0.8243995411526878
| 10> O -0.40318903001041423 2.0218262931131257 -1.4057795199453014
| 11> C -0.7839380870975529 -0.2514038718061329 -0.7034950128143199
| 12> H -1.5187959469978394 -0.2487088919232749 -1.5181243628830288
| 13> C 0.16266324185862022 -1.4489033178336417 -0.8564715771263856
| 14> C 1.2618914033005288 -1.4263399158181407 0.2011608492795076
| 15> C -1.57310728868123 -0.24266570125897519 0.6384465222686759
| 16> C -2.5395170438573302 0.9409221540769138 0.7061498421252153
| 17> C -2.3397426549763183 -1.552671085485519 0.8275057376982841
| 18> H 3.6217617393430044 0.9716003588733335 1.1108890078451465
| 19> H 3.9711248566521546 -0.6495505990321732 0.45352421304409063
| 20> H 3.1559637947968735 -0.5042470126260923 1.9997041644456808
| 21> H 1.8548948323022296 1.9863572866038932 -0.13959963964190172
| 22> H -0.3931193124348423 -2.3892327846326102 -0.8165802345815145
| 23> H 0.6281854080545344 -1.3967728612182244 -1.8486192702651554
| 24> H 0.8604275244356597 -1.6896030571347804 1.1917792886291023
| 25> H 2.0272467829433056 -2.18138776516079 -0.013820451520959212
| 26> H -0.8512921100007783 -0.1421741135165651 1.460229802156752
| 27> H -3.2585574287891377 0.9012443214608545 -0.1209504889498871
| 28> H -2.022677778252635 1.9035261999764024 0.6589775784806179
| 29> H -3.1042680150993194 0.9124126031555562 1.6436021252996715
| 30> H -2.959275821216135 -1.495724115362974 1.7287229791267886
| 31> H -1.6745061780852843 -2.413284896434244 0.9386742006676118
| 32> H -3.0033403315117293 -1.7403948245713057 -0.02551413184303038
| 33> *
| 34>
| 35>                          ****END OF INPUT****

CARTESIAN COORDINATES (ANGSTROEM)
---------------------------------
  C      3.240198   -0.046266    1.006154
  C      1.921444   -0.086557    0.316398
  C      1.343783    1.027411   -0.190969
  C      0.035401    1.015816   -0.824400
  O     -0.403189    2.021826   -1.405780
  C     -0.783938   -0.251404   -0.703495
  H     -1.518796   -0.248709   -1.518124
  C      0.162663   -1.448903   -0.856472
  C      1.261891   -1.426340    0.201161
  C     -1.573107   -0.242666    0.638447
  C     -2.539517    0.940922    0.706150
  C     -2.339743   -1.552671    0.827506
  H      3.621762    0.971600    1.110889
  H      3.971125   -0.649551    0.453524
  H      3.155964   -0.504247    1.999704
  H      1.854895    1.986357   -0.139600
  H     -0.393119   -2.389233   -0.816580
  H      0.628185   -1.396773   -1.848619
  H      0.860428   -1.689603    1.191779
  H      2.027247   -2.181388   -0.013820
  H     -0.851292   -0.142174    1.460230
  H     -3.258557    0.901244   -0.120950
  H     -2.022678    1.903526    0.658978
  H     -3.104268    0.912413    1.643602
  H     -2.959276   -1.495724    1.728723
  H     -1.674506   -2.413285    0.938674
  H     -3.003340   -1.740395   -0.025514

 Total Charge           Charge          ....    0
 Multiplicity           Mult            ....    1
 Number of Electrons    NEL             ....   84
 Basis Dimension        Dim             ....  437

ORBITAL ENERGIES
----------------

  NO   OCC          E(Eh)            E(eV)
   0   2.0000     -21.644522      -588.9774
   1   2.0000     -12.123535      -329.8982
   2   2.0000     -12.086310      -328.8852
   3   2.0000     -12.063851      -328.2741
   4   2.0000     -12.058237      -328.1213
   5   2.0000     -12.058129      -328.1184
   6   2.0000     -12.055271      -328.0406
   7   2.0000     -12.053361      -327.9886
   8   2.0000     -12.045972      -327.7876
   9   2.0000     -12.038999      -327.5978
  10   2.0000     -12.028120      -327.3018
  11   2.0000      -1.679150       -45.6920
  12   2.0000      -1.378137       -37.5010
  13   2.0000      -1.326858       -36.1056
  14   2.0000      -1.272727       -34.6327
  15   2.0000      -1.254629       -34.1402
  16   2.0000      -1.203695       -32.7542
  17   2.0000      -1.176906       -32.0252
  18   2.0000      -1.119123       -30.4529
  19   2.0000      -1.104321       -30.0501
  20   2.0000      -1.050195       -28.5773
  21   2.0000      -1.011920       -27.5358
  22   2.0000      -0.964996       -26.2589
  23   2.0000      -0.952427       -25.9169
  24   2.0000      -0.915798       -24.9201
  25   2.0000      -0.902349       -24.5542
  26   2.0000      -0.893224       -24.3059
  27   2.0000      -0.871175       -23.7059
  28   2.0000      -0.866018       -23.5655
  29   2.0000      -0.862293       -23.4642
  30   2.0000      -0.855264       -23.2729
  31   2.0000      -0.848288       -23.0831
  32   2.0000      -0.838146       -22.8071
  33   2.0000      -0.822718       -22.3873
  34   2.0000      -0.811124       -22.0718
  35   2.0000      -0.803043       -21.8519
  36   2.0000      -0.798521       -21.7289
  37   2.0000      -0.784758       -21.3544
  38   2.0000      -0.776809       -21.1380
  39   2.0000      -0.760265       -20.6879
  40   2.0000      -0.749664       -20.3994
  41   2.0000      -0.669111       -18.2074
  42   0.0000      -0.336151        -9.1471
  43   0.0000      -0.174879        -4.7587
  44   0.0000      -0.066017        -1.7964
  45   0.0000      -0.052159        -1.4193
  46   0.0000      -0.050174        -1.3653

MULLIKEN ATOMIC CHARGES
-----------------------
   0 C :   -0.357375
   1 C :    0.080735
   2 C :   -0.279662
   3 C :    0.167041
   4 O :   -0.326174
   5 C :    0.076372
   6 H :    0.087997
   7 C :   -0.250531
   8 C :   -0.176459
   9 C :   -0.086628
  10 C :   -0.341717
  11 C :   -0.358712
  12 H :    0.128220
  13 H :    0.128951
  14 H :    0.123352
  15 H :    0.119146
  16 H :    0.131408
  17 H :    0.118383
  18 H :    0.121905
  19 H :    0.122015
  20 H :    0.080539
  21 H :    0.105687
  22 H :    0.136154
  23 H :    0.106249
  24 H :    0.117729
  25 H :    0.110849
  26 H :    0.114525
Sum of atomic charges:   -0.0000000

LOEWDIN ATOMIC CHARGES
----------------------
   0 C :   -0.247386
   1 C :   -0.151490
   2 C :   -0.116130
   3 C :   -0.286429
   4 O :    0.087034
   5 C :   -0.188368
   6 H :    0.162413
   7 C :   -0.215346
   8 C :   -0.211945
   9 C :   -0.273747
  10 C :   -0.272973
  11 C :   -0.277835
  12 H :    0.128484
  13 H :    0.132368
  14 H :    0.132558
  15 H :    0.150153
  16 H :    0.136190
  17 H :    0.144723
  18 H :    0.149466
  19 H :    0.145505
  20 H :    0.150040
  21 H :    0.122777
  22 H :    0.124899
  23 H :    0.117106
  24 H :    0.121077
  25 H :    0.114387
  26 H :    0.122472

  Mayer bond orders larger than 0.100000
B(  0-C ,  1-C ) :   0.9539 B(  0-C , 12-H ) :   0.9920 B(  0-C , 13-H ) :   0.9698
B(  0-C , 14-H ) :   0.9650 B(  1-C ,  2-C ) :   1.7315 B(  1-C ,  8-C ) :   0.9812
B(  2-C ,  3-C ) :   1.1032 B(  2-C , 15-H ) :   0.9662 B(  3-C ,  4-O ) :   2.1097
B(  3-C ,  5-C ) :   0.9069 B(  5-C ,  6-H ) :   0.9577 B(  5-C ,  7-C ) :   0.9076
B(  5-C ,  9-C ) :   0.9618 B(  7-C ,  8-C ) :   0.9875 B(  7-C , 16-H ) :   0.9885
B(  7-C , 17-H ) :   0.9753 B(  8-C , 18-H ) :   0.9483 B(  8-C , 19-H ) :   0.9704
B(  9-C , 10-C ) :   1.0018 B(  9-C , 11-C ) :   0.9647 B(  9-C , 20-H ) :   0.9551
B( 10-C , 21-H ) :   0.9707 B( 10-C , 22-H ) :   0.9749 B( 10-C , 23-H ) :   0.9823
B( 11-C , 24-H ) :   0.9851 B( 11-C , 25-H ) :   0.9795 B( 11-C , 26-H ) :   0.9745

FINAL SINGLE POINT ENERGY      -465.951409553029

DIPOLE MOMENT
-------------

Method             : SCF
Type of density    : Electron Density
Multiplicity       :   1
Irrep              :   0
Energy             :  -465.9696603980285659 Eh
Relativity type    :
Basis              : AO
                                X                 Y                 Z
Electronic contribution:      3.175233428       6.215233404      -5.644905431
Nuclear contribution   :     -2.469726625      -7.565086177       6.492391047
                        -----------------------------------------
Total Dipole Moment    :      0.705506803      -1.349852772       0.847485616
                        -----------------------------------------
Magnitude (a.u.)       :      1.743007236
Magnitude (Debye)      :      4.430372307

Rotational constants in cm-1:             0.051188             0.029125             0.023015
Rotational constants in MHz :          1534.592208           873.155774           689.980601

                             ****ORCA TERMINATED NORMALLY****
TOTAL RUN TIME: 0 days 0 hours 6 minutes 18 seconds 557 msec
