                         Program Version 6.0.0  -   RELEASE  -
|  1> ! wb97x-v def2-tzvp def2/J RIJCOSX DEFGRID2 scfconv7 GCP(DFT/TZ) printgap
|  2> %output
|  3>     printlevel normal
|  4> end
|  5> %cpcm
|  6>     smd true
|  7>     smdsolvent "water"
|  8> end
|  9> * xyz 0 1
| 10> C 3.2401984682677263 -0.04626556940589913 1.0061541150683433
| 11> C 1.9214439569018176 -0.08655737713328782 0.3163982690806129
| 12> C 1.3437831757152683 1.0274112926959096 -0.19096877970146553
| 13> C 0.035400981411230915 1.0158157027175412 -0.8243995411526878
| 14> O -0.40318903001041423 2.0218262931131257 -1.4057795199453014
| 15> C -0.7839380870975529 -0.2514038718061329 -0.7034950128143199
| 16> H -1.5187959469978394 -0.2487088919232749 -1.5181243628830288
| 17> C 0.16266324185862022 -1.4489033178336417 -0.8564715771263856
| 18> C 1.2618914033005288 -1.4263399158181407 0.2011608492795076
| 19> C -1.57310728868123 -0.24266570125897519 0.6384465222686759
| 20> C -2.5395170438573302 0.9409221540769138 0.7061498421252153
| 21> C -2.3397426549763183 -1.552671085485519 0.8275057376982841
| 22> H 3.6217617393430044 0.9716003588733335 1.1108890078451465
| 23> H 3.9711248566521546 -0.6495505990321732 0.45352421304409063
| 24> H 3.1559637947968735 -0.5042470126260923 1.9997041644456808
| 25> H 1.8548948323022296 1.9863572866038932 -0.13959963964190172
| 26> H -0.3931193124348423 -2.3892327846326102 -0.8165802345815145
| 27> H 0.6281854080545344 -1.3967728612182244 -1.8486192702651554
| 28> H 0.8604275244356597 -1.6896030571347804 1.1917792886291023
| 29> H 2.0272467829433056 -2.18138776516079 -0.013820451520959212
| 30> H -0.8512921100007783 -0.1421741135165651 1.460229802156752
| 31> H -3.2585574287891377 0.9012443214608545 -0.1209504889498871
| 32> H -2.022677778252635 1.9035261999764024 0.6589775784806179
| 33> H -3.1042680150993194 0.9124126031555562 1.6436021252996715
| 34> H -2.959275821216135 -1.495724115362974 1.7287229791267886
| 35> H -1.6745061780852843 -2.413284896434244 0.9386742006676118
| 36> H -3.0033403315117293 -1.7403948245713057 -0.02551413184303038
| 37> *
| 38>
| 39>                          ****END OF INPUT****

CARTESIAN COORDINATES (ANGSTROEM)
---------------------------------
  C      3.240198   -0.046266    1.006154
  C      1.921444   -0.086557    0.316398
  C      1.343783    1.027411   -0.190969
  C      0.035401    1.015816   -0.824400
  O     -0.403189    2.021826   -1.405780
  C     -0.783938   -0.251404   -0.703495
  H     -1.518796   -0.248709   -1.518124
  C      0.162663   -1.448903   -0.856472
  C      1.261891   -1.426340    0.201161
  C     -1.573107   -0.242666    0.638447
  C     -2.539517    0.940922    0.706150
  C     -2.339743   -1.552671    0.827506
  H      3.621762    0.971600    1.110889
  H      3.971125   -0.649551    0.453524
  H      3.155964   -0.504247    1.999704
  H      1.854895    1.986357   -0.139600
  H     -0.393119   -2.389233   -0.816580
  H      0.628185   -1.396773   -1.848619
  H      0.860428   -1.689603    1.191779
  H      2.027247   -2.181388   -0.013820
  H     -0.851292   -0.142174    1.460230
  H     -3.258557    0.901244   -0.120950
  H     -2.022678    1.903526    0.658978
  H     -3.104268    0.912413    1.643602
  H     -2.959276   -1.495724    1.728723
  H     -1.674506   -2.413285    0.938674
  H     -3.003340   -1.740395   -0.025514

 Total Charge           Charge          ....    0
 Multiplicity           Mult            ....    1
 Number of Electrons    NEL             ....   84
 Basis Dimension        Dim             ....  437

ORBITAL ENERGIES
----------------

  NO   OCC          E(Eh)            E(eV)
   0   2.0000     -21.659254      -589.3783
   1   2.0000     -12.135059      -330.2117
   2   2.0000     -12.082387      -328.7785
   3   2.0000     -12.049173      -327.8747
   4   2.0000     -12.047739      -327.8356
   5   2.0000     -12.045022      -327.7617
   6   2.0000     -12.039934      -327.6233
   7   2.0000     -12.038896      -327.5950
   8   2.0000     -12.038468      -327.5834
   9   2.0000     -12.024990      -327.2166
  10   2.0000     -12.023927      -327.1877
  11   2.0000      -1.698348       -46.2144
  12   2.0000      -1.369520       -37.2665
  13   2.0000      -1.318062       -35.8663
  14   2.0000      -1.260633       -34.3036
  15   2.0000      -1.248687       -33.9785
  16   2.0000      -1.191102       -32.4115
  17   2.0000      -1.168419       -31.7943
  18   2.0000      -1.114342       -30.3228
  19   2.0000      -1.101988       -29.9866
  20   2.0000      -1.044435       -28.4205
  21   2.0000      -1.021337       -27.7920
  22   2.0000      -0.958073       -26.0705
  23   2.0000      -0.948893       -25.8207
  24   2.0000      -0.911761       -24.8103
  25   2.0000      -0.902914       -24.5695
  26   2.0000      -0.888218       -24.1696
  27   2.0000      -0.865538       -23.5525
  28   2.0000      -0.861438       -23.4409
  29   2.0000      -0.856082       -23.2952
  30   2.0000      -0.843525       -22.9535
  31   2.0000      -0.837029       -22.7767
  32   2.0000      -0.822704       -22.3869
  33   2.0000      -0.808324       -21.9956
  34   2.0000      -0.800601       -21.7855
  35   2.0000      -0.791455       -21.5366
  36   2.0000      -0.786239       -21.3947
  37   2.0000      -0.778288       -21.1783
  38   2.0000      -0.767414       -20.8824
  39   2.0000      -0.753796       -20.5118
  40   2.0000      -0.740156       -20.1407
  41   2.0000      -0.664194       -18.0736
  42   0.0000      -0.334392        -9.0993
  43   0.0000      -0.170505        -4.6397
  44   0.0000      -0.062070        -1.6890
  45   0.0000      -0.042348        -1.1523
  46   0.0000      -0.036294        -0.9876

MULLIKEN ATOMIC CHARGES
-----------------------
   0 C :   -0.398605
   1 C :    0.084903
   2 C :   -0.362658
   3 C :    0.288491
   4 O :   -0.486050
   5 C :    0.039263
   6 H :    0.101454
   7 C :   -0.262148
   8 C :   -0.183967
   9 C :   -0.039347
  10 C :   -0.412788
  11 C :   -0.422529
  12 H :    0.146052
  13 H :    0.154279
  14 H :    0.150616
  15 H :    0.147915
  16 H :    0.148125
  17 H :    0.128279
  18 H :    0.148020
  19 H :    0.146979
  20 H :    0.099805
  21 H :    0.122730
  22 H :    0.132100
  23 H :    0.130856
  24 H :    0.133422
  25 H :    0.137501
  26 H :    0.127304
Sum of atomic charges:   -0.0000000

LOEWDIN ATOMIC CHARGES
----------------------
   0 C :   -0.242885
   1 C :   -0.127601
   2 C :   -0.136459
   3 C :   -0.278167
   4 O :   -0.007638
   5 C :   -0.187813
   6 H :    0.164032
   7 C :   -0.211412
   8 C :   -0.202080
   9 C :   -0.269042
  10 C :   -0.283936
  11 C :   -0.280254
  12 H :    0.132205
  13 H :    0.141345
  14 H :    0.141795
  15 H :    0.153502
  16 H :    0.142278
  17 H :    0.147228
  18 H :    0.160210
  19 H :    0.154451
  20 H :    0.156228
  21 H :    0.123228
  22 H :    0.119729
  23 H :    0.122327
  24 H :    0.123367
  25 H :    0.120919
  26 H :    0.124444

  Mayer bond orders larger than 0.100000
B(  0-C ,  1-C ) :   0.9570 B(  0-C , 12-H ) :   0.9864 B(  0-C , 13-H ) :   0.9596
B(  0-C , 14-H ) :   0.9574 B(  1-C ,  2-C ) :   1.7216 B(  1-C ,  8-C ) :   0.9948
B(  2-C ,  3-C ) :   1.1125 B(  2-C , 15-H ) :   0.9579 B(  3-C ,  4-O ) :   1.9262
B(  3-C ,  5-C ) :   0.9270 B(  5-C ,  6-H ) :   0.9553 B(  5-C ,  7-C ) :   0.9160
B(  5-C ,  9-C ) :   0.9637 B(  7-C ,  8-C ) :   0.9869 B(  7-C , 16-H ) :   0.9801
B(  7-C , 17-H ) :   0.9731 B(  8-C , 18-H ) :   0.9379 B(  8-C , 19-H ) :   0.9602
B(  9-C , 10-C ) :   0.9674 B(  9-C , 11-C ) :   0.9585 B(  9-C , 20-H ) :   0.9533
B( 10-C , 21-H ) :   0.9734 B( 10-C , 22-H ) :   0.9754 B( 10-C , 23-H ) :   0.9825
B( 11-C , 24-H ) :   0.9817 B( 11-C , 25-H ) :   0.9769 B( 11-C , 26-H ) :   0.9728

FINAL SINGLE POINT ENERGY      -465.961295339974

DIPOLE MOMENT
-------------

Method             : SCF
Type of density    : Electron Density
Multiplicity       :   1
Irrep              :   0
Energy             :  -465.9795461849739127 Eh
Relativity type    :
Basis              : AO
                                X                 Y                 Z
Electronic contribution:      3.596824908       5.372731105      -5.143255976
Nuclear contribution   :     -2.469726625      -7.565086177       6.492391047
                        -----------------------------------------
Total Dipole Moment    :      1.127098284      -2.192355072       1.349135071
                        -----------------------------------------
Magnitude (a.u.)       :      2.810148882
Magnitude (Debye)      :      7.142830809

Rotational constants in cm-1:             0.051188             0.029125             0.023015
Rotational constants in MHz :          1534.592208           873.155774           689.980601

                             ****ORCA TERMINATED NORMALLY****
TOTAL RUN TIME: 0 days 0 hours 6 minutes 24 seconds 646 msec
