                         Program Version 6.0.0  -   RELEASE  -
|  1> ! pbe def2-sv(p) def2/J RI DEFGRID1 loosescf d4 GCP(DFT/SV(P)) printgap
|  2> %output
|  3>     printlevel normal
|  4> end
|  5> * xyz 0 1
|  6> C -2.4282760995 -0.6500912597 -0.0148924357
|  7> C -0.9927779719 -0.251673929 0.3421604689
|  8> H -0.9412140723 -0.0128928243 1.4134246152
|  9> C -0.5388851979 0.9699092695 -0.4572167186
| 10> H -0.5855018549 0.7160325381 -1.5273359991
| 11> C 0.9265674316 1.3231869359 -0.1156557527
| 12> H 0.9111986363 2.1446399878 0.6126834428
| 13> C 1.6689822684 0.1435065115 0.549290742
| 14> H 2.7438014911 0.245477133 0.3316507564
| 15> C 1.205106971 -1.1743578577 -0.0916004747
| 16> H 1.6850480199 -2.0402988778 0.3852449122
| 17> O -0.1784554305 -1.3887078414 0.0632925768
| 18> O 1.5971229101 -1.2388096639 -1.4280404131
| 19> O 1.433526622 0.1997416311 1.9310321072
| 20> O 1.5467245629 1.7007057976 -1.3240327618
| 21> O -1.4093222616 2.0314321619 -0.1669233847
| 22> O -2.9015189185 -1.6970710096 0.7904936894
| 23> H -2.4611612907 -0.9340102446 -1.0752566936
| 24> H -3.0859562182 0.2029817466 0.1563464758
| 25> H 1.4260576826 -0.3945528963 -1.8803645603
| 26> H 1.9391282089 -0.4890270252 2.3864247649
| 27> H 2.3778209371 2.1657168955 -1.1509521823
| 28> H -1.2308948501 2.7690349752 -0.7688757689
| 29> H -2.2783203531 -2.4350263597 0.7195576892
| 30> *
| 31>
| 32>                          ****END OF INPUT****

CARTESIAN COORDINATES (ANGSTROEM)
---------------------------------
  C     -2.428276   -0.650091   -0.014892
  C     -0.992778   -0.251674    0.342160
  H     -0.941214   -0.012893    1.413425
  C     -0.538885    0.969909   -0.457217
  H     -0.585502    0.716033   -1.527336
  C      0.926567    1.323187   -0.115656
  H      0.911199    2.144640    0.612683
  C      1.668982    0.143507    0.549291
  H      2.743801    0.245477    0.331651
  C      1.205107   -1.174358   -0.091600
  H      1.685048   -2.040299    0.385245
  O     -0.178455   -1.388708    0.063293
  O      1.597123   -1.238810   -1.428040
  O      1.433527    0.199742    1.931032
  O      1.546725    1.700706   -1.324033
  O     -1.409322    2.031432   -0.166923
  O     -2.901519   -1.697071    0.790494
  H     -2.461161   -0.934010   -1.075257
  H     -3.085956    0.202982    0.156346
  H      1.426058   -0.394553   -1.880365
  H      1.939128   -0.489027    2.386425
  H      2.377821    2.165717   -1.150952
  H     -1.230895    2.769035   -0.768876
  H     -2.278320   -2.435026    0.719558

 Total Charge           Charge          ....    0
 Multiplicity           Mult            ....    1
 Number of Electrons    NEL             ....   96
 Basis Dimension        Dim             ....  192

ORBITAL ENERGIES
----------------

  NO   OCC          E(Eh)            E(eV)
   0   2.0000     -18.782730      -511.1041
   1   2.0000     -18.769974      -510.7570
   2   2.0000     -18.764284      -510.6021
   3   2.0000     -18.760954      -510.5115
   4   2.0000     -18.750436      -510.2253
   5   2.0000     -18.730672      -509.6875
   6   2.0000      -9.985531      -271.7201
   7   2.0000      -9.956200      -270.9220
   8   2.0000      -9.954506      -270.8759
   9   2.0000      -9.950125      -270.7567
  10   2.0000      -9.933991      -270.3176
  11   2.0000      -9.917327      -269.8642
  12   2.0000      -0.978335       -26.6218
  13   2.0000      -0.956149       -26.0181
  14   2.0000      -0.942619       -25.6500
  15   2.0000      -0.937260       -25.5041
  16   2.0000      -0.914051       -24.8726
  17   2.0000      -0.899029       -24.4638
  18   2.0000      -0.712242       -19.3811
  19   2.0000      -0.688558       -18.7366
  20   2.0000      -0.617367       -16.7994
  21   2.0000      -0.594623       -16.1805
  22   2.0000      -0.564710       -15.3666
  23   2.0000      -0.524513       -14.2727
  24   2.0000      -0.513810       -13.9815
  25   2.0000      -0.485364       -13.2074
  26   2.0000      -0.479084       -13.0365
  27   2.0000      -0.468571       -12.7505
  28   2.0000      -0.449788       -12.2394
  29   2.0000      -0.437644       -11.9089
  30   2.0000      -0.422480       -11.4963
  31   2.0000      -0.386552       -10.5186
  32   2.0000      -0.384060       -10.4508
  33   2.0000      -0.381009       -10.3678
  34   2.0000      -0.359926        -9.7941
  35   2.0000      -0.350751        -9.5444
  36   2.0000      -0.332659        -9.0521
  37   2.0000      -0.312503        -8.5036
  38   2.0000      -0.306113        -8.3298
  39   2.0000      -0.297389        -8.0924
  40   2.0000      -0.287253        -7.8165
  41   2.0000      -0.266162        -7.2426
  42   2.0000      -0.256950        -6.9920
  43   2.0000      -0.254862        -6.9352
  44   2.0000      -0.225898        -6.1470
  45   2.0000      -0.222847        -6.0640
  46   2.0000      -0.215612        -5.8671
  47   2.0000      -0.201729        -5.4893
  48   0.0000       0.002818         0.0767
  49   0.0000       0.010725         0.2918
  50   0.0000       0.024086         0.6554
  51   0.0000       0.053596         1.4584
  52   0.0000       0.057231         1.5573

MULLIKEN ATOMIC CHARGES
-----------------------
   0 C :    0.097229
   1 C :    0.033968
   2 H :    0.074180
   3 C :    0.028409
   4 H :    0.051785
   5 C :    0.041846
   6 H :    0.072290
   7 C :    0.000624
   8 H :    0.059273
   9 C :    0.191528
  10 H :    0.052449
  11 O :   -0.319828
  12 O :   -0.398934
  13 O :   -0.403307
  14 O :   -0.415523
  15 O :   -0.407525
  16 O :   -0.436544
  17 H :    0.056766
  18 H :    0.094361
  19 H :    0.300656
  20 H :    0.310042
  21 H :    0.310448
  22 H :    0.307570
  23 H :    0.298237
Sum of atomic charges:   -0.0000000

LOEWDIN ATOMIC CHARGES
----------------------
   0 C :   -0.124465
   1 C :   -0.072243
   2 H :    0.114955
   3 C :   -0.070764
   4 H :    0.104378
   5 C :   -0.076947
   6 H :    0.115664
   7 C :   -0.100575
   8 H :    0.101700
   9 C :   -0.005639
  10 H :    0.099535
  11 O :   -0.151560
  12 O :   -0.310439
  13 O :   -0.307299
  14 O :   -0.313225
  15 O :   -0.309266
  16 O :   -0.336893
  17 H :    0.095418
  18 H :    0.120073
  19 H :    0.270274
  20 H :    0.292898
  21 H :    0.291490
  22 H :    0.291902
  23 H :    0.281027

  Mayer bond orders larger than 0.100000
B(  0-C ,  1-C ) :   1.0540 B(  0-C , 16-O ) :   1.0805 B(  0-C , 17-H ) :   0.9038
B(  0-C , 18-H ) :   0.9131 B(  1-C ,  2-H ) :   0.8525 B(  1-C ,  3-C ) :   1.0689
B(  1-C , 11-O ) :   0.9704 B(  3-C ,  4-H ) :   0.8568 B(  3-C ,  5-C ) :   1.0273
B(  3-C , 15-O ) :   1.0714 B(  5-C ,  6-H ) :   0.8509 B(  5-C ,  7-C ) :   1.0042
B(  5-C , 14-O ) :   1.0487 B(  7-C ,  8-H ) :   0.8895 B(  7-C ,  9-C ) :   1.0012
B(  7-C , 13-O ) :   1.0379 B(  9-C , 10-H ) :   0.8992 B(  9-C , 11-O ) :   1.0580
B(  9-C , 12-O ) :   1.1381 B( 12-O , 19-H ) :   0.8145 B( 13-O , 20-H ) :   0.8431
B( 14-O , 21-H ) :   0.8408 B( 15-O , 22-H ) :   0.8462 B( 16-O , 23-H ) :   0.8459

Dispersion correction           -0.024646780
FINAL SINGLE POINT ENERGY      -685.690859849435

DIPOLE MOMENT
-------------

Method             : SCF
Type of density    : Electron Density
Multiplicity       :   1
Irrep              :   0
Energy             :  -685.8216438338905618 Eh
Relativity type    :
Basis              : AO
                                X                 Y                 Z
Electronic contribution:      1.084572057      -0.818615845       0.260615019
Nuclear contribution   :      0.470395827       1.812426314      -0.374865885
                        -----------------------------------------
Total Dipole Moment    :      1.554967884       0.993810469      -0.114250866
                        -----------------------------------------
Magnitude (a.u.)       :      1.848955821
Magnitude (Debye)      :      4.699672208

Rotational constants in cm-1:             0.040373             0.025812             0.021465
Rotational constants in MHz :          1210.355131           773.837666           643.503591

                             ****ORCA TERMINATED NORMALLY****
TOTAL RUN TIME: 0 days 0 hours 0 minutes 12 seconds 21 msec
