                         Program Version 6.0.0  -   RELEASE  -
|  1> ! wb97x-v def2-tzvp def2/J RIJCOSX DEFGRID2 scfconv7 GCP(DFT/TZ) printgap
|  2> %output
|  3>     printlevel normal
|  4> end
|  5> * xyz 0 1
|  6> C 1.5492950345822831 0.529266778836958 0.11138428887705362
|  7> C 0.6246401127273944 -0.6065980332012092 -0.28850084803181525
|  8> O -0.666096357685261 -0.5492707878615524 0.3425709856095953
|  9> C -1.4646653977863353 0.5371196126683392 -0.12926363450738104
| 10> H 2.544960281916024 0.3460351998444141 -0.30593975454567107
| 11> H 1.2032451843099914 1.4955671037238676 -0.26597317894721384
| 12> H 1.6414427698222944 0.5876106455099388 1.2008503469658955
| 13> H 1.0504204822461234 -1.5661411161927057 0.021577610963515233
| 14> H 0.4906198487147075 -0.629318371968933 -1.381114097023137
| 15> H -1.064864958374825 1.5097900109818958 0.18532037554514683
| 16> H -2.461243039455484 0.41220654784006877 0.30150844523267145
| 17> H -1.5420529117225252 0.5205504140151989 -1.2261598654677008
| 18> *
| 19>
| 20>                          ****END OF INPUT****

CARTESIAN COORDINATES (ANGSTROEM)
---------------------------------
  C      1.549295    0.529267    0.111384
  C      0.624640   -0.606598   -0.288501
  O     -0.666096   -0.549271    0.342571
  C     -1.464665    0.537120   -0.129264
  H      2.544960    0.346035   -0.305940
  H      1.203245    1.495567   -0.265973
  H      1.641443    0.587611    1.200850
  H      1.050420   -1.566141    0.021578
  H      0.490620   -0.629318   -1.381114
  H     -1.064865    1.509790    0.185320
  H     -2.461243    0.412207    0.301508
  H     -1.542053    0.520550   -1.226160

 Total Charge           Charge          ....    0
 Multiplicity           Mult            ....    1
 Number of Electrons    NEL             ....   34
 Basis Dimension        Dim             ....  172

ORBITAL ENERGIES
----------------

  NO   OCC          E(Eh)            E(eV)
   0   2.0000     -21.668903      -589.6408
   1   2.0000     -12.090588      -329.0016
   2   2.0000     -12.084243      -328.8290
   3   2.0000     -12.037982      -327.5701
   4   2.0000      -1.670118       -45.4462
   5   2.0000      -1.276384       -34.7322
   6   2.0000      -1.199714       -32.6459
   7   2.0000      -1.098306       -29.8864
   8   2.0000      -0.979182       -26.6449
   9   2.0000      -0.964226       -26.2379
  10   2.0000      -0.949687       -25.8423
  11   2.0000      -0.860194       -23.4071
  12   2.0000      -0.832452       -22.6522
  13   2.0000      -0.817982       -22.2584
  14   2.0000      -0.806387       -21.9429
  15   2.0000      -0.781613       -21.2688
  16   2.0000      -0.769698       -20.9445
  17   0.0000      -0.157845        -4.2952
  18   0.0000      -0.097897        -2.6639
  19   0.0000      -0.018037        -0.4908
  20   0.0000       0.001303         0.0355
  21   0.0000       0.016911         0.4602

MULLIKEN ATOMIC CHARGES
-----------------------
   0 C :   -0.337753
   1 C :   -0.015749
   2 O :   -0.303251
   3 C :   -0.184783
   4 H :    0.109809
   5 H :    0.109390
   6 H :    0.115707
   7 H :    0.103719
   8 H :    0.079995
   9 H :    0.102986
  10 H :    0.124068
  11 H :    0.095862
Sum of atomic charges:   -0.0000000

LOEWDIN ATOMIC CHARGES
----------------------
   0 C :   -0.314573
   1 C :   -0.340859
   2 O :    0.104464
   3 C :   -0.344120
   4 H :    0.121914
   5 H :    0.114230
   6 H :    0.120494
   7 H :    0.123856
   8 H :    0.112773
   9 H :    0.096226
  10 H :    0.108316
  11 H :    0.097278

  Mayer bond orders larger than 0.100000
B(  0-C ,  1-C ) :   0.9763 B(  0-C ,  4-H ) :   0.9711 B(  0-C ,  5-H ) :   0.9785
B(  0-C ,  6-H ) :   0.9729 B(  1-C ,  2-O ) :   1.0066 B(  1-C ,  7-H ) :   0.9711
B(  1-C ,  8-H ) :   0.9866 B(  2-O ,  3-C ) :   0.9969 B(  3-C ,  9-H ) :   0.9761
B(  3-C , 10-H ) :   0.9802 B(  3-C , 11-H ) :   0.9741

FINAL SINGLE POINT ENERGY      -194.346497081238

DIPOLE MOMENT
-------------

Method             : SCF
Type of density    : Electron Density
Multiplicity       :   1
Irrep              :   0
Energy             :  -194.3549880016383327 Eh
Relativity type    :
Basis              : AO
                                X                 Y                 Z
Electronic contribution:     -1.550666787      -2.207767689       1.056326942
Nuclear contribution   :      1.770115059       2.573740384      -1.413927331
                        -----------------------------------------
Total Dipole Moment    :      0.219448272       0.365972695      -0.357600389
                        -----------------------------------------
Magnitude (a.u.)       :      0.556750928
Magnitude (Debye)      :      1.415148395

Rotational constants in cm-1:             0.513697             0.174705             0.149849
Rotational constants in MHz :         15400.261361          5237.537638          4492.365372

                             ****ORCA TERMINATED NORMALLY****
TOTAL RUN TIME: 0 days 0 hours 0 minutes 32 seconds 273 msec
