                         Program Version 6.0.0  -   RELEASE  -
|  1> ! wb97x-v def2-tzvp def2/J RIJCOSX DEFGRID2 scfconv7 GCP(DFT/TZ) printgap
|  2> %output
|  3>     printlevel normal
|  4> end
|  5> %cpcm
|  6>     smd true
|  7>     smdsolvent "water"
|  8> end
|  9> * xyz 0 1
| 10> C 1.5492950345822831 0.529266778836958 0.11138428887705362
| 11> C 0.6246401127273944 -0.6065980332012092 -0.28850084803181525
| 12> O -0.666096357685261 -0.5492707878615524 0.3425709856095953
| 13> C -1.4646653977863353 0.5371196126683392 -0.12926363450738104
| 14> H 2.544960281916024 0.3460351998444141 -0.30593975454567107
| 15> H 1.2032451843099914 1.4955671037238676 -0.26597317894721384
| 16> H 1.6414427698222944 0.5876106455099388 1.2008503469658955
| 17> H 1.0504204822461234 -1.5661411161927057 0.021577610963515233
| 18> H 0.4906198487147075 -0.629318371968933 -1.381114097023137
| 19> H -1.064864958374825 1.5097900109818958 0.18532037554514683
| 20> H -2.461243039455484 0.41220654784006877 0.30150844523267145
| 21> H -1.5420529117225252 0.5205504140151989 -1.2261598654677008
| 22> *
| 23>
| 24>                          ****END OF INPUT****

CARTESIAN COORDINATES (ANGSTROEM)
---------------------------------
  C      1.549295    0.529267    0.111384
  C      0.624640   -0.606598   -0.288501
  O     -0.666096   -0.549271    0.342571
  C     -1.464665    0.537120   -0.129264
  H      2.544960    0.346035   -0.305940
  H      1.203245    1.495567   -0.265973
  H      1.641443    0.587611    1.200850
  H      1.050420   -1.566141    0.021578
  H      0.490620   -0.629318   -1.381114
  H     -1.064865    1.509790    0.185320
  H     -2.461243    0.412207    0.301508
  H     -1.542053    0.520550   -1.226160

 Total Charge           Charge          ....    0
 Multiplicity           Mult            ....    1
 Number of Electrons    NEL             ....   34
 Basis Dimension        Dim             ....  172

ORBITAL ENERGIES
----------------

  NO   OCC          E(Eh)            E(eV)
   0   2.0000     -21.674991      -589.8065
   1   2.0000     -12.084370      -328.8324
   2   2.0000     -12.077189      -328.6370
   3   2.0000     -12.027533      -327.2858
   4   2.0000      -1.676219       -45.6122
   5   2.0000      -1.271785       -34.6070
   6   2.0000      -1.195281       -32.5253
   7   2.0000      -1.093792       -29.7636
   8   2.0000      -0.977676       -26.6039
   9   2.0000      -0.967658       -26.3313
  10   2.0000      -0.951945       -25.9037
  11   2.0000      -0.853253       -23.2182
  12   2.0000      -0.824705       -22.4414
  13   2.0000      -0.811100       -22.0711
  14   2.0000      -0.799222       -21.7479
  15   2.0000      -0.777083       -21.1455
  16   2.0000      -0.763309       -20.7707
  17   0.0000      -0.154531        -4.2050
  18   0.0000      -0.095447        -2.5972
  19   0.0000      -0.004715        -0.1283
  20   0.0000       0.009526         0.2592
  21   0.0000       0.027801         0.7565

MULLIKEN ATOMIC CHARGES
-----------------------
   0 C :   -0.383070
   1 C :   -0.022982
   2 O :   -0.390228
   3 C :   -0.212947
   4 H :    0.132367
   5 H :    0.133474
   6 H :    0.120797
   7 H :    0.121585
   8 H :    0.106550
   9 H :    0.129339
  10 H :    0.141444
  11 H :    0.123671
Sum of atomic charges:   -0.0000000

LOEWDIN ATOMIC CHARGES
----------------------
   0 C :   -0.317410
   1 C :   -0.341194
   2 O :    0.065125
   3 C :   -0.344735
   4 H :    0.127839
   5 H :    0.119817
   6 H :    0.120549
   7 H :    0.127044
   8 H :    0.121086
   9 H :    0.104328
  10 H :    0.111491
  11 H :    0.106060

  Mayer bond orders larger than 0.100000
B(  0-C ,  1-C ) :   0.9796 B(  0-C ,  4-H ) :   0.9673 B(  0-C ,  5-H ) :   0.9747
B(  0-C ,  6-H ) :   0.9690 B(  1-C ,  2-O ) :   0.9691 B(  1-C ,  7-H ) :   0.9673
B(  1-C ,  8-H ) :   0.9854 B(  2-O ,  3-C ) :   0.9589 B(  3-C ,  9-H ) :   0.9751
B(  3-C , 10-H ) :   0.9731 B(  3-C , 11-H ) :   0.9736

FINAL SINGLE POINT ENERGY      -194.349328948570

DIPOLE MOMENT
-------------

Method             : SCF
Type of density    : Electron Density
Multiplicity       :   1
Irrep              :   0
Energy             :  -194.3578198689700685 Eh
Relativity type    :
Basis              : AO
                                X                 Y                 Z
Electronic contribution:     -1.462198510      -2.043502141       0.866085817
Nuclear contribution   :      1.770115059       2.573740384      -1.413927331
                        -----------------------------------------
Total Dipole Moment    :      0.307916549       0.530238243      -0.547841514
                        -----------------------------------------
Magnitude (a.u.)       :      0.822250278
Magnitude (Debye)      :      2.089994112

Rotational constants in cm-1:             0.513697             0.174705             0.149849
Rotational constants in MHz :         15400.261361          5237.537638          4492.365372

                             ****ORCA TERMINATED NORMALLY****
TOTAL RUN TIME: 0 days 0 hours 0 minutes 37 seconds 164 msec
