                         Program Version 6.0.0  -   RELEASE  -
|  1> ! wb97x-v def2-tzvp def2/J RIJCOSX DEFGRID2 scfconv7 GCP(DFT/TZ) printgap
|  2> %output
|  3>     printlevel normal
|  4> end
|  5> * xyz 0 1
|  6> C -2.545314823713946 -1.0233653602390318 -0.0012149305249107305
|  7> C -1.2405764474686929 -0.277765922487017 0.0018722258275033596
|  8> C -1.2049739627044047 1.1191625766820237 0.0013895622939032075
|  9> C 0.016616304148651482 1.79198064782179 -0.000247697182149396
| 10> C 1.2165698076300502 1.0919072378287642 -0.001100964894008621
| 11> C 1.1799882871408194 -0.3029613112851185 -0.000190817623941479
| 12> C -0.033735660787705346 -0.985147581242034 0.0014546824848621941
| 13> O 2.389453519624057 -0.9661389776288531 -0.00035232986071920524
| 14> H -2.6467946309852874 -1.6314133573554754 -0.9068728455967016
| 15> H -2.6098822529082897 -1.7064248854333643 0.8523746840961142
| 16> H -3.392530461880006 -0.3350112692719335 0.04421068463628776
| 17> H -2.1347031694934913 1.6798550190511787 0.002576868129052424
| 18> H 0.03462465845551977 2.8776584532684373 -0.00030733592060028963
| 19> H 2.1718364975945192 1.6063578922056994 -0.0017888454483059107
| 20> H -0.03782977317010446 -2.0730209715739747 0.002422698198841285
| 21> H 2.2239149544265624 -1.9192846816571196 0.0003023694394771447
| 22> *
| 23>
| 24>                          ****END OF INPUT****

CARTESIAN COORDINATES (ANGSTROEM)
---------------------------------
  C     -2.545315   -1.023365   -0.001215
  C     -1.240576   -0.277766    0.001872
  C     -1.204974    1.119163    0.001390
  C      0.016616    1.791981   -0.000248
  C      1.216570    1.091907   -0.001101
  C      1.179988   -0.302961   -0.000191
  C     -0.033736   -0.985148    0.001455
  O      2.389454   -0.966139   -0.000352
  H     -2.646795   -1.631413   -0.906873
  H     -2.609882   -1.706425    0.852375
  H     -3.392530   -0.335011    0.044211
  H     -2.134703    1.679855    0.002577
  H      0.034625    2.877658   -0.000307
  H      2.171836    1.606358   -0.001789
  H     -0.037830   -2.073021    0.002423
  H      2.223915   -1.919285    0.000302

 Total Charge           Charge          ....    0
 Multiplicity           Mult            ....    1
 Number of Electrons    NEL             ....   58
 Basis Dimension        Dim             ....  296

ORBITAL ENERGIES
----------------

  NO   OCC          E(Eh)            E(eV)
   0   2.0000     -21.701979      -590.5409
   1   2.0000     -12.113095      -329.6141
   2   2.0000     -12.064620      -328.2950
   3   2.0000     -12.053148      -327.9828
   4   2.0000     -12.047795      -327.8372
   5   2.0000     -12.046002      -327.7884
   6   2.0000     -12.043020      -327.7072
   7   2.0000     -12.040847      -327.6481
   8   2.0000      -1.714134       -46.6440
   9   2.0000      -1.385735       -37.7078
  10   2.0000      -1.298594       -35.3365
  11   2.0000      -1.275477       -34.7075
  12   2.0000      -1.199836       -32.6492
  13   2.0000      -1.152330       -31.3565
  14   2.0000      -1.096720       -29.8433
  15   2.0000      -1.057338       -28.7716
  16   2.0000      -0.996930       -27.1278
  17   2.0000      -0.947492       -25.7826
  18   2.0000      -0.945568       -25.7302
  19   2.0000      -0.942491       -25.6465
  20   2.0000      -0.893891       -24.3240
  21   2.0000      -0.873301       -23.7637
  22   2.0000      -0.840889       -22.8817
  23   2.0000      -0.834127       -22.6978
  24   2.0000      -0.820645       -22.3309
  25   2.0000      -0.806011       -21.9327
  26   2.0000      -0.759593       -20.6696
  27   2.0000      -0.639293       -17.3960
  28   2.0000      -0.631586       -17.1863
  29   0.0000      -0.242367        -6.5951
  30   0.0000      -0.240336        -6.5399
  31   0.0000      -0.145773        -3.9667
  32   0.0000      -0.071536        -1.9466
  33   0.0000      -0.069179        -1.8825

MULLIKEN ATOMIC CHARGES
-----------------------
   0 C :   -0.364476
   1 C :    0.154424
   2 C :   -0.234309
   3 C :   -0.064906
   4 C :   -0.237954
   5 C :    0.294757
   6 C :   -0.284903
   7 O :   -0.393449
   8 H :    0.123605
   9 H :    0.122687
  10 H :    0.118044
  11 H :    0.110484
  12 H :    0.117127
  13 H :    0.121640
  14 H :    0.105983
  15 H :    0.311247
Sum of atomic charges:    0.0000000

LOEWDIN ATOMIC CHARGES
----------------------
   0 C :   -0.250225
   1 C :   -0.166309
   2 C :   -0.139351
   3 C :   -0.132022
   4 C :   -0.128198
   5 C :   -0.256838
   6 C :   -0.123972
   7 O :    0.061526
   8 H :    0.127558
   9 H :    0.127060
  10 H :    0.124936
  11 H :    0.141122
  12 H :    0.143029
  13 H :    0.146576
  14 H :    0.141349
  15 H :    0.183758

  Mayer bond orders larger than 0.100000
B(  0-C ,  1-C ) :   0.9061 B(  0-C ,  8-H ) :   0.9735 B(  0-C ,  9-H ) :   0.9773
B(  0-C , 10-H ) :   0.9960 B(  1-C ,  2-C ) :   1.4214 B(  1-C ,  6-C ) :   1.3797
B(  2-C ,  3-C ) :   1.4223 B(  2-C , 11-H ) :   0.9670 B(  3-C ,  4-C ) :   1.4493
B(  3-C , 12-H ) :   0.9753 B(  4-C ,  5-C ) :   1.3967 B(  4-C , 13-H ) :   0.9729
B(  5-C ,  6-C ) :   1.3810 B(  5-C ,  7-O ) :   1.1360 B(  6-C , 14-H ) :   0.9531
B(  7-O , 15-H ) :   0.8920

FINAL SINGLE POINT ENERGY      -346.804162990350

DIPOLE MOMENT
-------------

Method             : SCF
Type of density    : Electron Density
Multiplicity       :   1
Irrep              :   0
Energy             :  -346.8129995583501000 Eh
Relativity type    :
Basis              : AO
                                X                 Y                 Z
Electronic contribution:      5.555050043       0.924235910       0.005501828
Nuclear contribution   :     -5.990132890      -1.423503320      -0.007399537
                        -----------------------------------------
Total Dipole Moment    :     -0.435082847      -0.499267410      -0.001897709
                        -----------------------------------------
Magnitude (a.u.)       :      0.662245144
Magnitude (Debye)      :      1.683293384

Rotational constants in cm-1:             0.121924             0.059985             0.040507
Rotational constants in MHz :          3655.197207          1798.301244          1214.364281

                             ****ORCA TERMINATED NORMALLY****
TOTAL RUN TIME: 0 days 0 hours 2 minutes 31 seconds 699 msec
