                         Program Version 6.0.0  -   RELEASE  -
|  1> ! wb97x-v def2-tzvp def2/J RIJCOSX DEFGRID2 scfconv7 GCP(DFT/TZ) printgap
|  2> %output
|  3>     printlevel normal
|  4> end
|  5> %cpcm
|  6>     smd true
|  7>     smdsolvent "water"
|  8> end
|  9> * xyz 0 1
| 10> C -2.545314823713946 -1.0233653602390318 -0.0012149305249107305
| 11> C -1.2405764474686929 -0.277765922487017 0.0018722258275033596
| 12> C -1.2049739627044047 1.1191625766820237 0.0013895622939032075
| 13> C 0.016616304148651482 1.79198064782179 -0.000247697182149396
| 14> C 1.2165698076300502 1.0919072378287642 -0.001100964894008621
| 15> C 1.1799882871408194 -0.3029613112851185 -0.000190817623941479
| 16> C -0.033735660787705346 -0.985147581242034 0.0014546824848621941
| 17> O 2.389453519624057 -0.9661389776288531 -0.00035232986071920524
| 18> H -2.6467946309852874 -1.6314133573554754 -0.9068728455967016
| 19> H -2.6098822529082897 -1.7064248854333643 0.8523746840961142
| 20> H -3.392530461880006 -0.3350112692719335 0.04421068463628776
| 21> H -2.1347031694934913 1.6798550190511787 0.002576868129052424
| 22> H 0.03462465845551977 2.8776584532684373 -0.00030733592060028963
| 23> H 2.1718364975945192 1.6063578922056994 -0.0017888454483059107
| 24> H -0.03782977317010446 -2.0730209715739747 0.002422698198841285
| 25> H 2.2239149544265624 -1.9192846816571196 0.0003023694394771447
| 26> *
| 27>
| 28>                          ****END OF INPUT****

CARTESIAN COORDINATES (ANGSTROEM)
---------------------------------
  C     -2.545315   -1.023365   -0.001215
  C     -1.240576   -0.277766    0.001872
  C     -1.204974    1.119163    0.001390
  C      0.016616    1.791981   -0.000248
  C      1.216570    1.091907   -0.001101
  C      1.179988   -0.302961   -0.000191
  C     -0.033736   -0.985148    0.001455
  O      2.389454   -0.966139   -0.000352
  H     -2.646795   -1.631413   -0.906873
  H     -2.609882   -1.706425    0.852375
  H     -3.392530   -0.335011    0.044211
  H     -2.134703    1.679855    0.002577
  H      0.034625    2.877658   -0.000307
  H      2.171836    1.606358   -0.001789
  H     -0.037830   -2.073021    0.002423
  H      2.223915   -1.919285    0.000302

 Total Charge           Charge          ....    0
 Multiplicity           Mult            ....    1
 Number of Electrons    NEL             ....   58
 Basis Dimension        Dim             ....  296

ORBITAL ENERGIES
----------------

  NO   OCC          E(Eh)            E(eV)
   0   2.0000     -21.700182      -590.4920
   1   2.0000     -12.112575      -329.5999
   2   2.0000     -12.062057      -328.2253
   3   2.0000     -12.051496      -327.9379
   4   2.0000     -12.043007      -327.7069
   5   2.0000     -12.042532      -327.6940
   6   2.0000     -12.038532      -327.5851
   7   2.0000     -12.034163      -327.4662
   8   2.0000      -1.712842       -46.6088
   9   2.0000      -1.385060       -37.6894
  10   2.0000      -1.296246       -35.2727
  11   2.0000      -1.274053       -34.6687
  12   2.0000      -1.193293       -32.4712
  13   2.0000      -1.150515       -31.3071
  14   2.0000      -1.093838       -29.7648
  15   2.0000      -1.055248       -28.7148
  16   2.0000      -0.997648       -27.1474
  17   2.0000      -0.946856       -25.7653
  18   2.0000      -0.943752       -25.6808
  19   2.0000      -0.941411       -25.6171
  20   2.0000      -0.888545       -24.1785
  21   2.0000      -0.868487       -23.6327
  22   2.0000      -0.831101       -22.6154
  23   2.0000      -0.828287       -22.5388
  24   2.0000      -0.814264       -22.1573
  25   2.0000      -0.798558       -21.7299
  26   2.0000      -0.759556       -20.6686
  27   2.0000      -0.638766       -17.3817
  28   2.0000      -0.632522       -17.2118
  29   0.0000      -0.242959        -6.6113
  30   0.0000      -0.239694        -6.5224
  31   0.0000      -0.143426        -3.9028
  32   0.0000      -0.070613        -1.9215
  33   0.0000      -0.039281        -1.0689

MULLIKEN ATOMIC CHARGES
-----------------------
   0 C :   -0.390121
   1 C :    0.150785
   2 C :   -0.289895
   3 C :   -0.112230
   4 C :   -0.296548
   5 C :    0.304478
   6 C :   -0.334165
   7 O :   -0.473334
   8 H :    0.141704
   9 H :    0.141702
  10 H :    0.141565
  11 H :    0.156478
  12 H :    0.160998
  13 H :    0.155116
  14 H :    0.165903
  15 H :    0.377565
Sum of atomic charges:    0.0000000

LOEWDIN ATOMIC CHARGES
----------------------
   0 C :   -0.251268
   1 C :   -0.173238
   2 C :   -0.150564
   3 C :   -0.145097
   4 C :   -0.146978
   5 C :   -0.269346
   6 C :   -0.117263
   7 O :    0.035468
   8 H :    0.132887
   9 H :    0.132523
  10 H :    0.129759
  11 H :    0.150434
  12 H :    0.152270
  13 H :    0.152542
  14 H :    0.158427
  15 H :    0.209442

  Mayer bond orders larger than 0.100000
B(  0-C ,  1-C ) :   0.9209 B(  0-C ,  8-H ) :   0.9668 B(  0-C ,  9-H ) :   0.9703
B(  0-C , 10-H ) :   0.9916 B(  1-C ,  2-C ) :   1.3864 B(  1-C ,  6-C ) :   1.3281
B(  2-C ,  3-C ) :   1.4067 B(  2-C , 11-H ) :   0.9748 B(  3-C ,  4-C ) :   1.4366
B(  3-C , 12-H ) :   0.9761 B(  4-C ,  5-C ) :   1.3627 B(  4-C , 13-H ) :   0.9803
B(  5-C ,  6-C ) :   1.3872 B(  5-C ,  7-O ) :   1.0965 B(  6-C , 14-H ) :   0.9711
B(  7-O , 15-H ) :   0.8501

FINAL SINGLE POINT ENERGY      -346.813266258801

DIPOLE MOMENT
-------------

Method             : SCF
Type of density    : Electron Density
Multiplicity       :   1
Irrep              :   0
Energy             :  -346.8221028268005739 Eh
Relativity type    :
Basis              : AO
                                X                 Y                 Z
Electronic contribution:      5.352290842       0.656330781       0.004885822
Nuclear contribution   :     -5.990132890      -1.423503320      -0.007399537
                        -----------------------------------------
Total Dipole Moment    :     -0.637842048      -0.767172538      -0.002513715
                        -----------------------------------------
Magnitude (a.u.)       :      0.997698602
Magnitude (Debye)      :      2.535948311

Rotational constants in cm-1:             0.121924             0.059985             0.040507
Rotational constants in MHz :          3655.197207          1798.301244          1214.364281

                             ****ORCA TERMINATED NORMALLY****
TOTAL RUN TIME: 0 days 0 hours 2 minutes 20 seconds 454 msec
