                         Program Version 6.0.0  -   RELEASE  -
|  1> ! pbe def2-sv(p) def2/J RI DEFGRID1 loosescf d4 GCP(DFT/SV(P)) printgap
|  2> %output
|  3>     printlevel normal
|  4> end
|  5> * xyz 0 1
|  6> C -2.2262709664 0.9241388053 0.0004081313
|  7> O -0.8110602357 0.7386563004 -0.0006167662
|  8> C -0.3596311582 -0.5151354967 1.9297e-06
|  9> O -1.1012875154 -1.4820456166 -0.0001273325
| 10> C 1.1104920706 -0.6065507671 -0.0004611965
| 11> C 1.9237164335 0.4319108532 -0.7413262793
| 12> C 1.923481164 0.4309442553 0.7420508523
| 13> H -2.3800269461 1.9976599622 -0.0472829111
| 14> H -2.6573909078 0.5064816421 0.9112244151
| 15> H -2.6705402711 0.4241965716 -0.8613163241
| 16> H 1.4561826302 -1.6311781733 -0.0010266936
| 17> H 2.7980085419 0.0806899197 -1.2654201443
| 18> H 1.3748077215 1.208508198 -1.249591628
| 19> H 2.7976340926 0.0791362453 1.2659163346
| 20> H 1.3742182205 1.2067096369 1.2512835417
| 21> *
| 22>
| 23>                          ****END OF INPUT****

CARTESIAN COORDINATES (ANGSTROEM)
---------------------------------
  C     -2.226271    0.924139    0.000408
  O     -0.811060    0.738656   -0.000617
  C     -0.359631   -0.515135    0.000002
  O     -1.101288   -1.482046   -0.000127
  C      1.110492   -0.606551   -0.000461
  C      1.923716    0.431911   -0.741326
  C      1.923481    0.430944    0.742051
  H     -2.380027    1.997660   -0.047283
  H     -2.657391    0.506482    0.911224
  H     -2.670540    0.424197   -0.861316
  H      1.456183   -1.631178   -0.001027
  H      2.798009    0.080690   -1.265420
  H      1.374808    1.208508   -1.249592
  H      2.797634    0.079136    1.265916
  H      1.374218    1.206710    1.251284

 Total Charge           Charge          ....    0
 Multiplicity           Mult            ....    1
 Number of Electrons    NEL             ....   54
 Basis Dimension        Dim             ....  114

ORBITAL ENERGIES
----------------

  NO   OCC          E(Eh)            E(eV)
   0   2.0000     -18.799137      -511.5505
   1   2.0000     -18.728361      -509.6246
   2   2.0000     -10.002622      -272.1852
   3   2.0000      -9.941014      -270.5087
   4   2.0000      -9.912142      -269.7231
   5   2.0000      -9.904093      -269.5041
   6   2.0000      -9.904039      -269.5026
   7   2.0000      -1.003916       -27.3179
   8   2.0000      -0.903759       -24.5925
   9   2.0000      -0.797226       -21.6936
  10   2.0000      -0.669011       -18.2047
  11   2.0000      -0.579201       -15.7609
  12   2.0000      -0.546084       -14.8597
  13   2.0000      -0.507941       -13.8218
  14   2.0000      -0.469514       -12.7761
  15   2.0000      -0.446988       -12.1632
  16   2.0000      -0.431809       -11.7501
  17   2.0000      -0.406654       -11.0656
  18   2.0000      -0.381688       -10.3863
  19   2.0000      -0.355548        -9.6750
  20   2.0000      -0.345373        -9.3981
  21   2.0000      -0.329881        -8.9765
  22   2.0000      -0.307987        -8.3807
  23   2.0000      -0.284884        -7.7521
  24   2.0000      -0.266215        -7.2441
  25   2.0000      -0.254935        -6.9371
  26   2.0000      -0.212893        -5.7931
  27   0.0000      -0.019791        -0.5385
  28   0.0000       0.042152         1.1470
  29   0.0000       0.048726         1.3259
  30   0.0000       0.070174         1.9095
  31   0.0000       0.090815         2.4712

MULLIKEN ATOMIC CHARGES
-----------------------
   0 C :   -0.105251
   1 O :   -0.256209
   2 C :    0.181680
   3 O :   -0.208040
   4 C :   -0.198599
   5 C :   -0.182671
   6 C :   -0.182871
   7 H :    0.119318
   8 H :    0.118797
   9 H :    0.119936
  10 H :    0.105674
  11 H :    0.119273
  12 H :    0.124845
  13 H :    0.119274
  14 H :    0.124843
Sum of atomic charges:    0.0000000

LOEWDIN ATOMIC CHARGES
----------------------
   0 C :   -0.201886
   1 O :   -0.080211
   2 C :    0.041441
   3 O :   -0.173928
   4 C :   -0.168024
   5 C :   -0.221266
   6 C :   -0.221250
   7 H :    0.119326
   8 H :    0.119462
   9 H :    0.119943
  10 H :    0.140405
  11 H :    0.131124
  12 H :    0.131886
  13 H :    0.131110
  14 H :    0.131869

  Mayer bond orders larger than 0.100000
B(  0-C ,  1-O ) :   0.9422 B(  0-C ,  7-H ) :   0.9587 B(  0-C ,  8-H ) :   0.9533
B(  0-C ,  9-H ) :   0.9511 B(  1-O ,  2-C ) :   1.2062 B(  2-C ,  3-O ) :   2.0549
B(  2-C ,  4-C ) :   1.0559 B(  4-C ,  5-C ) :   0.9567 B(  4-C ,  6-C ) :   0.9571
B(  4-C , 10-H ) :   0.9181 B(  5-C ,  6-C ) :   1.0888 B(  5-C , 11-H ) :   0.9272
B(  5-C , 12-H ) :   0.9255 B(  6-C , 13-H ) :   0.9272 B(  6-C , 14-H ) :   0.9255

Dispersion correction           -0.011101921
FINAL SINGLE POINT ENERGY      -345.029781138457

DIPOLE MOMENT
-------------

Method             : SCF
Type of density    : Electron Density
Multiplicity       :   1
Irrep              :   0
Energy             :  -345.0862762650892250 Eh
Relativity type    :
Basis              : AO
                                X                 Y                 Z
Electronic contribution:     -1.666765382      -2.839570141      -0.003190179
Nuclear contribution   :      1.935105896       3.621763122       0.003541432
                        -----------------------------------------
Total Dipole Moment    :      0.268340513       0.782192981       0.000351252
                        -----------------------------------------
Magnitude (a.u.)       :      0.826941724
Magnitude (Debye)      :      2.101918819

Rotational constants in cm-1:             0.172923             0.065432             0.053900
Rotational constants in MHz :          5184.109439          1961.587268          1615.881421

                             ****ORCA TERMINATED NORMALLY****
TOTAL RUN TIME: 0 days 0 hours 0 minutes 7 seconds 60 msec
