                         Program Version 6.0.0  -   RELEASE  -
|  1> ! r2scan-3c def2/J RI DEFGRID2 scfconv6 printgap
|  2> %output
|  3>     printlevel normal
|  4> end
|  5> * xyz 0 1
|  6> C -1.9561861584 -0.1491581222 -0.0016130437
|  7> C -0.5934245903 0.5313337002 0.017768125
|  8> C 0.5408106802 -0.4926691434 -0.0303839046
|  9> O 1.82318535 0.0943982105 0.0570664726
| 10> H -2.7489829729 0.5932112298 0.0270555925
| 11> H -2.0712491926 -0.7438660537 -0.9048035656
| 12> H -2.0662428553 -0.8061999117 0.8575331499
| 13> H -0.4863494756 1.128394808 0.9254407767
| 14> H -0.508462124 1.203264408 -0.8395324571
| 15> H 0.474531538 -1.1660550178 0.8279187663
| 16> H 0.462752654 -1.0955409066 -0.946051483
| 17> H 1.9410163298 0.7050286155 -0.6838450931
| 18> *
| 19>
| 20>                          ****END OF INPUT****

CARTESIAN COORDINATES (ANGSTROEM)
---------------------------------
  C     -1.956186   -0.149158   -0.001613
  C     -0.593425    0.531334    0.017768
  C      0.540811   -0.492669   -0.030384
  O      1.823185    0.094398    0.057066
  H     -2.748983    0.593211    0.027056
  H     -2.071249   -0.743866   -0.904804
  H     -2.066243   -0.806200    0.857533
  H     -0.486349    1.128395    0.925441
  H     -0.508462    1.203264   -0.839532
  H      0.474532   -1.166055    0.827919
  H      0.462753   -1.095541   -0.946051
  H      1.941016    0.705029   -0.683845

 Total Charge           Charge          ....    0
 Multiplicity           Mult            ....    1
 Number of Electrons    NEL             ....   34
 Basis Dimension        Dim             ....  121

ORBITAL ENERGIES
----------------

  NO   OCC          E(Eh)            E(eV)
   0   2.0000     -18.945061      -515.5213
   1   2.0000     -10.072754      -274.0936
   2   2.0000     -10.028626      -272.8928
   3   2.0000     -10.022993      -272.7395
   4   2.0000      -0.981667       -26.7125
   5   2.0000      -0.747691       -20.3457
   6   2.0000      -0.640143       -17.4192
   7   2.0000      -0.566086       -15.4040
   8   2.0000      -0.473877       -12.8949
   9   2.0000      -0.435066       -11.8387
  10   2.0000      -0.392810       -10.6889
  11   2.0000      -0.386029       -10.5044
  12   2.0000      -0.355829        -9.6826
  13   2.0000      -0.325303        -8.8520
  14   2.0000      -0.314220        -8.5504
  15   2.0000      -0.287347        -7.8191
  16   2.0000      -0.233654        -6.3581
  17   0.0000       0.062829         1.7097
  18   0.0000       0.096492         2.6257
  19   0.0000       0.132186         3.5970
  20   0.0000       0.138991         3.7821
  21   0.0000       0.142552         3.8790

MULLIKEN ATOMIC CHARGES
-----------------------
   0 C :   -0.466558
   1 C :   -0.207192
   2 C :   -0.157675
   3 O :   -0.417131
   4 H :    0.148156
   5 H :    0.140567
   6 H :    0.142898
   7 H :    0.148069
   8 H :    0.120879
   9 H :    0.133569
  10 H :    0.122775
  11 H :    0.291643
Sum of atomic charges:    0.0000000

LOEWDIN ATOMIC CHARGES
----------------------
   0 C :   -0.423087
   1 C :   -0.307368
   2 C :   -0.002262
   3 O :   -0.619922
   4 H :    0.152788
   5 H :    0.150319
   6 H :    0.151483
   7 H :    0.158108
   8 H :    0.148435
   9 H :    0.174364
  10 H :    0.153197
  11 H :    0.263946

  Mayer bond orders larger than 0.100000
B(  0-C ,  1-C ) :   0.9043 B(  0-C ,  4-H ) :   0.9684 B(  0-C ,  5-H ) :   0.9779
B(  0-C ,  6-H ) :   0.9798 B(  1-C ,  2-C ) :   0.9227 B(  1-C ,  7-H ) :   0.9642
B(  1-C ,  8-H ) :   0.9589 B(  2-C ,  3-O ) :   0.9406 B(  2-C ,  9-H ) :   0.9751
B(  2-C , 10-H ) :   0.9785 B(  3-O , 11-H ) :   0.8975

Dispersion correction           -0.002068645
FINAL SINGLE POINT ENERGY      -194.298823096722

DIPOLE MOMENT
-------------

Method             : SCF
Type of density    : Electron Density
Multiplicity       :   1
Irrep              :   0
Energy             :  -194.3037110567487957 Eh
Relativity type    :
Basis              : AO
                                X                 Y                 Z
Electronic contribution:      4.192462242       0.333388680       0.264937896
Nuclear contribution   :     -4.666524075      -0.169119733      -0.689911785
                        -----------------------------------------
Total Dipole Moment    :     -0.474061832       0.164268947      -0.424973889
                        -----------------------------------------
Magnitude (a.u.)       :      0.657511760
Magnitude (Debye)      :      1.671262076

Rotational constants in cm-1:             0.869829             0.126613             0.118734
Rotational constants in MHz :         26076.807493          3795.772248          3559.555815

                             ****ORCA TERMINATED NORMALLY****
TOTAL RUN TIME: 0 days 0 hours 0 minutes 11 seconds 481 msec
