                         Program Version 6.0.0  -   RELEASE  -
|  1> ! wb97x-v def2-tzvp def2/J RIJCOSX DEFGRID2 scfconv7 GCP(DFT/TZ) printgap
|  2> %output
|  3>     printlevel normal
|  4> end
|  5> * xyz 0 1
|  6> C -2.8667809861661233 -0.6645421692071775 0.3419839636319893
|  7> C -1.9838428005164035 0.4120802095145179 -0.28050743309034576
|  8> C -0.4935334041609212 0.20915532451104404 -0.12588198989933405
|  9> C 0.07449582410256074 -1.045338197931081 0.1157803129590657
| 10> C 1.4569238468117962 -1.1975113717462342 0.22184106559522476
| 11> C 2.298796116873135 -0.09709701681827902 0.09073256245243479
| 12> C 1.7454241406461244 1.1605117712766155 -0.14620719642105398
| 13> C 0.3661055290945806 1.3084340954079323 -0.2509489140493406
| 14> H -3.9204149331488516 -0.3849138540737037 0.2469983314785243
| 15> H -2.646383482534318 -0.7927059427441566 1.4072673923893884
| 16> H -2.7399794520474603 -1.6341681514599593 -0.1489876456615634
| 17> H -2.24028310527951 1.3893355306566304 0.14487501760198832
| 18> H -2.2126810653197655 0.48847726937528646 -1.3526058431292147
| 19> H -0.5615240691953647 -1.9178301315349404 0.22395966809509762
| 20> H 1.8746392604166688 -2.182153581193491 0.41039639192259086
| 21> H 3.3744900411988343 -0.21557804196878122 0.1759856802792832
| 22> H 2.390019195733134 2.0290304020743815 -0.2444001628698427
| 23> H -0.05668707021506467 2.293839709655131 -0.4314177820867798
| 24> *
| 25>
| 26>                          ****END OF INPUT****

CARTESIAN COORDINATES (ANGSTROEM)
---------------------------------
  C     -2.866781   -0.664542    0.341984
  C     -1.983843    0.412080   -0.280507
  C     -0.493533    0.209155   -0.125882
  C      0.074496   -1.045338    0.115780
  C      1.456924   -1.197511    0.221841
  C      2.298796   -0.097097    0.090733
  C      1.745424    1.160512   -0.146207
  C      0.366106    1.308434   -0.250949
  H     -3.920415   -0.384914    0.246998
  H     -2.646383   -0.792706    1.407267
  H     -2.739979   -1.634168   -0.148988
  H     -2.240283    1.389336    0.144875
  H     -2.212681    0.488477   -1.352606
  H     -0.561524   -1.917830    0.223960
  H      1.874639   -2.182154    0.410396
  H      3.374490   -0.215578    0.175986
  H      2.390019    2.029030   -0.244400
  H     -0.056687    2.293840   -0.431418

 Total Charge           Charge          ....    0
 Multiplicity           Mult            ....    1
 Number of Electrons    NEL             ....   58
 Basis Dimension        Dim             ....  308

ORBITAL ENERGIES
----------------

  NO   OCC          E(Eh)            E(eV)
   0   2.0000     -12.057229      -328.0939
   1   2.0000     -12.049814      -327.8921
   2   2.0000     -12.049273      -327.8774
   3   2.0000     -12.049043      -327.8711
   4   2.0000     -12.045830      -327.7837
   5   2.0000     -12.045333      -327.7702
   6   2.0000     -12.044640      -327.7513
   7   2.0000     -12.038619      -327.5875
   8   2.0000      -1.381053       -37.5804
   9   2.0000      -1.302126       -35.4326
  10   2.0000      -1.268102       -34.5068
  11   2.0000      -1.238786       -33.7091
  12   2.0000      -1.132605       -30.8198
  13   2.0000      -1.101113       -29.9628
  14   2.0000      -1.066193       -29.0126
  15   2.0000      -0.957999       -26.0685
  16   2.0000      -0.948833       -25.8191
  17   2.0000      -0.910270       -24.7697
  18   2.0000      -0.879891       -23.9431
  19   2.0000      -0.872918       -23.7533
  20   2.0000      -0.868131       -23.6230
  21   2.0000      -0.833433       -22.6789
  22   2.0000      -0.818373       -22.2691
  23   2.0000      -0.800699       -21.7881
  24   2.0000      -0.785095       -21.3635
  25   2.0000      -0.782459       -21.2918
  26   2.0000      -0.754379       -20.5277
  27   2.0000      -0.634116       -17.2552
  28   2.0000      -0.629096       -17.1186
  29   0.0000      -0.234752        -6.3879
  30   0.0000      -0.232491        -6.3264
  31   0.0000      -0.066690        -1.8147
  32   0.0000      -0.046972        -1.2782
  33   0.0000      -0.022510        -0.6125

MULLIKEN ATOMIC CHARGES
-----------------------
   0 C :   -0.354654
   1 C :   -0.158996
   2 C :    0.152540
   3 C :   -0.199785
   4 C :   -0.113834
   5 C :   -0.137976
   6 C :   -0.102230
   7 C :   -0.216455
   8 H :    0.118720
   9 H :    0.120550
  10 H :    0.108917
  11 H :    0.104826
  12 H :    0.103258
  13 H :    0.118469
  14 H :    0.114714
  15 H :    0.115094
  16 H :    0.114871
  17 H :    0.111972
Sum of atomic charges:   -0.0000000

LOEWDIN ATOMIC CHARGES
----------------------
   0 C :   -0.301852
   1 C :   -0.242108
   2 C :   -0.141452
   3 C :   -0.117127
   4 C :   -0.140034
   5 C :   -0.147938
   6 C :   -0.140582
   7 C :   -0.116091
   8 H :    0.118272
   9 H :    0.120351
  10 H :    0.115519
  11 H :    0.141045
  12 H :    0.143314
  13 H :    0.144050
  14 H :    0.140801
  15 H :    0.139818
  16 H :    0.140861
  17 H :    0.143151

  Mayer bond orders larger than 0.100000
B(  0-C ,  1-C ) :   0.9993 B(  0-C ,  8-H ) :   0.9809 B(  0-C ,  9-H ) :   0.9810
B(  0-C , 10-H ) :   0.9752 B(  1-C ,  2-C ) :   0.9428 B(  1-C , 11-H ) :   0.9873
B(  1-C , 12-H ) :   0.9496 B(  2-C ,  3-C ) :   1.3784 B(  2-C ,  7-C ) :   1.3720
B(  3-C ,  4-C ) :   1.4450 B(  3-C , 13-H ) :   0.9658 B(  4-C ,  5-C ) :   1.4352
B(  4-C , 14-H ) :   0.9738 B(  5-C ,  6-C ) :   1.4110 B(  5-C , 15-H ) :   0.9728
B(  6-C ,  7-C ) :   1.4585 B(  6-C , 16-H ) :   0.9760 B(  7-C , 17-H ) :   0.9767

FINAL SINGLE POINT ENERGY      -310.885474785908

DIPOLE MOMENT
-------------

Method             : SCF
Type of density    : Electron Density
Multiplicity       :   1
Irrep              :   0
Energy             :  -310.8957763560076160 Eh
Relativity type    :
Basis              : AO
                                X                 Y                 Z
Electronic contribution:      6.170587768       0.906736588      -0.428187145
Nuclear contribution   :     -6.356201695      -0.877787206       0.402118374
                        -----------------------------------------
Total Dipole Moment    :     -0.185613927       0.028949383      -0.026068770
                        -----------------------------------------
Magnitude (a.u.)       :      0.189658054
Magnitude (Debye)      :      0.482072463

Rotational constants in cm-1:             0.159842             0.048965             0.038301
Rotational constants in MHz :          4791.950294          1467.924295          1148.224349

                             ****ORCA TERMINATED NORMALLY****
TOTAL RUN TIME: 0 days 0 hours 2 minutes 54 seconds 397 msec
