                         Program Version 6.0.0  -   RELEASE  -
|  1> ! wb97x-v def2-tzvp def2/J RIJCOSX DEFGRID2 scfconv7 GCP(DFT/TZ) printgap
|  2> %output
|  3>     printlevel normal
|  4> end
|  5> %cpcm
|  6>     smd true
|  7>     smdsolvent "water"
|  8> end
|  9> * xyz 0 1
| 10> C -2.8667809861661233 -0.6645421692071775 0.3419839636319893
| 11> C -1.9838428005164035 0.4120802095145179 -0.28050743309034576
| 12> C -0.4935334041609212 0.20915532451104404 -0.12588198989933405
| 13> C 0.07449582410256074 -1.045338197931081 0.1157803129590657
| 14> C 1.4569238468117962 -1.1975113717462342 0.22184106559522476
| 15> C 2.298796116873135 -0.09709701681827902 0.09073256245243479
| 16> C 1.7454241406461244 1.1605117712766155 -0.14620719642105398
| 17> C 0.3661055290945806 1.3084340954079323 -0.2509489140493406
| 18> H -3.9204149331488516 -0.3849138540737037 0.2469983314785243
| 19> H -2.646383482534318 -0.7927059427441566 1.4072673923893884
| 20> H -2.7399794520474603 -1.6341681514599593 -0.1489876456615634
| 21> H -2.24028310527951 1.3893355306566304 0.14487501760198832
| 22> H -2.2126810653197655 0.48847726937528646 -1.3526058431292147
| 23> H -0.5615240691953647 -1.9178301315349404 0.22395966809509762
| 24> H 1.8746392604166688 -2.182153581193491 0.41039639192259086
| 25> H 3.3744900411988343 -0.21557804196878122 0.1759856802792832
| 26> H 2.390019195733134 2.0290304020743815 -0.2444001628698427
| 27> H -0.05668707021506467 2.293839709655131 -0.4314177820867798
| 28> *
| 29>
| 30>                          ****END OF INPUT****

CARTESIAN COORDINATES (ANGSTROEM)
---------------------------------
  C     -2.866781   -0.664542    0.341984
  C     -1.983843    0.412080   -0.280507
  C     -0.493533    0.209155   -0.125882
  C      0.074496   -1.045338    0.115780
  C      1.456924   -1.197511    0.221841
  C      2.298796   -0.097097    0.090733
  C      1.745424    1.160512   -0.146207
  C      0.366106    1.308434   -0.250949
  H     -3.920415   -0.384914    0.246998
  H     -2.646383   -0.792706    1.407267
  H     -2.739979   -1.634168   -0.148988
  H     -2.240283    1.389336    0.144875
  H     -2.212681    0.488477   -1.352606
  H     -0.561524   -1.917830    0.223960
  H      1.874639   -2.182154    0.410396
  H      3.374490   -0.215578    0.175986
  H      2.390019    2.029030   -0.244400
  H     -0.056687    2.293840   -0.431418

 Total Charge           Charge          ....    0
 Multiplicity           Mult            ....    1
 Number of Electrons    NEL             ....   58
 Basis Dimension        Dim             ....  308

ORBITAL ENERGIES
----------------

  NO   OCC          E(Eh)            E(eV)
   0   2.0000     -12.056308      -328.0688
   1   2.0000     -12.047954      -327.8415
   2   2.0000     -12.047782      -327.8368
   3   2.0000     -12.044413      -327.7452
   4   2.0000     -12.043593      -327.7228
   5   2.0000     -12.043093      -327.7092
   6   2.0000     -12.040707      -327.6443
   7   2.0000     -12.027811      -327.2934
   8   2.0000      -1.381296       -37.5870
   9   2.0000      -1.298573       -35.3360
  10   2.0000      -1.267903       -34.5014
  11   2.0000      -1.233383       -33.5620
  12   2.0000      -1.127134       -30.6709
  13   2.0000      -1.099696       -29.9242
  14   2.0000      -1.061877       -28.8952
  15   2.0000      -0.955111       -25.9899
  16   2.0000      -0.947732       -25.7891
  17   2.0000      -0.905792       -24.6479
  18   2.0000      -0.875480       -23.8230
  19   2.0000      -0.867269       -23.5996
  20   2.0000      -0.862015       -23.4566
  21   2.0000      -0.825658       -22.4673
  22   2.0000      -0.813531       -22.1373
  23   2.0000      -0.796529       -21.6746
  24   2.0000      -0.778526       -21.1848
  25   2.0000      -0.774943       -21.0873
  26   2.0000      -0.752151       -20.4671
  27   2.0000      -0.635766       -17.3001
  28   2.0000      -0.629846       -17.1390
  29   0.0000      -0.235505        -6.4084
  30   0.0000      -0.233574        -6.3559
  31   0.0000      -0.066421        -1.8074
  32   0.0000      -0.039687        -1.0799
  33   0.0000      -0.015029        -0.4089

MULLIKEN ATOMIC CHARGES
-----------------------
   0 C :   -0.395346
   1 C :   -0.158191
   2 C :    0.117689
   3 C :   -0.243142
   4 C :   -0.156339
   5 C :   -0.189905
   6 C :   -0.144947
   7 C :   -0.257106
   8 H :    0.135807
   9 H :    0.127665
  10 H :    0.127162
  11 H :    0.124969
  12 H :    0.118249
  13 H :    0.162469
  14 H :    0.158567
  15 H :    0.158878
  16 H :    0.158619
  17 H :    0.154902
Sum of atomic charges:   -0.0000000

LOEWDIN ATOMIC CHARGES
----------------------
   0 C :   -0.305982
   1 C :   -0.241221
   2 C :   -0.148801
   3 C :   -0.126013
   4 C :   -0.151784
   5 C :   -0.161137
   6 C :   -0.152093
   7 C :   -0.124235
   8 H :    0.121318
   9 H :    0.121074
  10 H :    0.119614
  11 H :    0.146337
  12 H :    0.147777
  13 H :    0.153342
  14 H :    0.150015
  15 H :    0.148779
  16 H :    0.150118
  17 H :    0.152892

  Mayer bond orders larger than 0.100000
B(  0-C ,  1-C ) :   0.9930 B(  0-C ,  8-H ) :   0.9775 B(  0-C ,  9-H ) :   0.9794
B(  0-C , 10-H ) :   0.9719 B(  1-C ,  2-C ) :   0.9512 B(  1-C , 11-H ) :   0.9860
B(  1-C , 12-H ) :   0.9444 B(  2-C ,  3-C ) :   1.3583 B(  2-C ,  7-C ) :   1.3513
B(  3-C ,  4-C ) :   1.4223 B(  3-C , 13-H ) :   0.9703 B(  4-C ,  5-C ) :   1.4134
B(  4-C , 14-H ) :   0.9771 B(  5-C ,  6-C ) :   1.3881 B(  5-C , 15-H ) :   0.9756
B(  6-C ,  7-C ) :   1.4375 B(  6-C , 16-H ) :   0.9789 B(  7-C , 17-H ) :   0.9824

FINAL SINGLE POINT ENERGY      -310.886876228106

DIPOLE MOMENT
-------------

Method             : SCF
Type of density    : Electron Density
Multiplicity       :   1
Irrep              :   0
Energy             :  -310.8971777982062008 Eh
Relativity type    :
Basis              : AO
                                X                 Y                 Z
Electronic contribution:      6.085534280       0.924522605      -0.453623178
Nuclear contribution   :     -6.356201695      -0.877787206       0.402118374
                        -----------------------------------------
Total Dipole Moment    :     -0.270667415       0.046735400      -0.051504804
                        -----------------------------------------
Magnitude (a.u.)       :      0.279459822
Magnitude (Debye)      :      0.710330416

Rotational constants in cm-1:             0.159842             0.048965             0.038301
Rotational constants in MHz :          4791.950294          1467.924295          1148.224349

                             ****ORCA TERMINATED NORMALLY****
TOTAL RUN TIME: 0 days 0 hours 2 minutes 45 seconds 83 msec
