                         Program Version 6.0.0  -   RELEASE  -
|  1> ! r2scan-3c def2/J RI DEFGRID2 scfconv6 printgap
|  2> %output
|  3>     printlevel normal
|  4> end
|  5> * xyz 0 1
|  6> C 4.8156309964 0.1204095053 0.0003477683
|  7> C 4.5281555538 1.4733510061 0.001235976
|  8> C 3.2111282387 1.9068853219 0.0008668933
|  9> C 2.1846545547 0.9794868234 7.6989e-06
| 10> C 2.4737562217 -0.3818912182 -0.0004144595
| 11> C 3.7889807497 -0.8114156607 -0.0003798673
| 12> O 1.4735283071 -1.3398456964 -0.0009235448
| 13> C 0.1952684796 -0.8682177883 -0.0003842654
| 14> C -0.8530053261 -1.7822843462 1.83156e-05
| 15> C -2.1754205169 -1.3630380589 0.0002719654
| 16> C -2.4542468805 -0.0089489733 6.13635e-05
| 17> C -1.4199993566 0.9254485546 -0.0003206945
| 18> C -0.0952318755 0.5004126282 -0.0003964323
| 19> O 0.8798884322 1.4492108135 -0.0004575765
| 20> Cl -1.7421543663 2.6181105635 -0.0005536866
| 21> Cl -4.086641178 0.5326002669 0.0006539384
| 22> Cl -0.4740722505 -3.4616858424 0.0001450862
| 23> H 5.83832532 -0.2186210916 4.21687e-05
| 24> H 5.3244030389 2.1991997114 0.0014348938
| 25> H 2.9575877166 2.9539062069 0.0010902471
| 26> H 3.9831862905 -1.8710920013 -0.0011116531
| 27> H -2.972963916 -2.0858601907 0.0009433343
| 28> *
| 29>
| 30>                          ****END OF INPUT****

CARTESIAN COORDINATES (ANGSTROEM)
---------------------------------
  C      4.815631    0.120410    0.000348
  C      4.528156    1.473351    0.001236
  C      3.211128    1.906885    0.000867
  C      2.184655    0.979487    0.000008
  C      2.473756   -0.381891   -0.000414
  C      3.788981   -0.811416   -0.000380
  O      1.473528   -1.339846   -0.000924
  C      0.195268   -0.868218   -0.000384
  C     -0.853005   -1.782284    0.000018
  C     -2.175421   -1.363038    0.000272
  C     -2.454247   -0.008949    0.000061
  C     -1.419999    0.925449   -0.000321
  C     -0.095232    0.500413   -0.000396
  O      0.879888    1.449211   -0.000458
  Cl    -1.742154    2.618111   -0.000554
  Cl    -4.086641    0.532600    0.000654
  Cl    -0.474072   -3.461686    0.000145
  H      5.838325   -0.218621    0.000042
  H      5.324403    2.199200    0.001435
  H      2.957588    2.953906    0.001090
  H      3.983186   -1.871092   -0.001112
  H     -2.972964   -2.085860    0.000943

 Total Charge           Charge          ....    0
 Multiplicity           Mult            ....    1
 Number of Electrons    NEL             ....  144
 Basis Dimension        Dim             ....  382

ORBITAL ENERGIES
----------------

  NO   OCC          E(Eh)            E(eV)
   0   2.0000    -101.235671     -2754.7627
   1   2.0000    -101.235334     -2754.7535
   2   2.0000    -101.234548     -2754.7321
   3   2.0000     -19.035612      -517.9853
   4   2.0000     -19.034192      -517.9467
   5   2.0000     -10.141015      -275.9510
   6   2.0000     -10.136836      -275.8373
   7   2.0000     -10.125465      -275.5279
   8   2.0000     -10.125031      -275.5161
   9   2.0000     -10.124192      -275.4933
  10   2.0000     -10.123680      -275.4793
  11   2.0000     -10.122773      -275.4547
  12   2.0000     -10.070572      -274.0342
  13   2.0000     -10.058369      -273.7021
  14   2.0000     -10.058174      -273.6968
  15   2.0000     -10.054128      -273.5867
  16   2.0000     -10.053639      -273.5734
  17   2.0000      -9.391401      -255.5530
  18   2.0000      -9.390849      -255.5380
  19   2.0000      -9.390395      -255.5256
  20   2.0000      -7.137930      -194.2330
  21   2.0000      -7.137573      -194.2232
  22   2.0000      -7.136917      -194.2054
  23   2.0000      -7.127614      -193.9522
  24   2.0000      -7.127091      -193.9380
  25   2.0000      -7.126947      -193.9341
  26   2.0000      -7.126590      -193.9244
  27   2.0000      -7.126194      -193.9136
  28   2.0000      -7.125934      -193.9065
  29   2.0000      -1.105379       -30.0789
  30   2.0000      -1.071645       -29.1609
  31   2.0000      -0.907028       -24.6815
  32   2.0000      -0.867875       -23.6161
  33   2.0000      -0.853689       -23.2301
  34   2.0000      -0.834946       -22.7200
  35   2.0000      -0.802995       -21.8506
  36   2.0000      -0.754676       -20.5358
  37   2.0000      -0.753610       -20.5068
  38   2.0000      -0.715575       -19.4718
  39   2.0000      -0.704518       -19.1709
  40   2.0000      -0.653366       -17.7790
  41   2.0000      -0.623555       -16.9678
  42   2.0000      -0.594428       -16.1752
  43   2.0000      -0.575240       -15.6531
  44   2.0000      -0.567828       -15.4514
  45   2.0000      -0.517030       -14.0691
  46   2.0000      -0.502172       -13.6648
  47   2.0000      -0.480374       -13.0716
  48   2.0000      -0.472618       -12.8606
  49   2.0000      -0.469692       -12.7810
  50   2.0000      -0.441828       -12.0227
  51   2.0000      -0.441466       -12.0129
  52   2.0000      -0.429846       -11.6967
  53   2.0000      -0.412804       -11.2330
  54   2.0000      -0.409895       -11.1538
  55   2.0000      -0.405347       -11.0301
  56   2.0000      -0.405050       -11.0220
  57   2.0000      -0.397903       -10.8275
  58   2.0000      -0.365725        -9.9519
  59   2.0000      -0.360625        -9.8131
  60   2.0000      -0.359379        -9.7792
  61   2.0000      -0.349521        -9.5109
  62   2.0000      -0.326522        -8.8851
  63   2.0000      -0.326052        -8.8723
  64   2.0000      -0.311787        -8.4842
  65   2.0000      -0.300208        -8.1691
  66   2.0000      -0.294009        -8.0004
  67   2.0000      -0.287612        -7.8263
  68   2.0000      -0.261213        -7.1080
  69   2.0000      -0.256281        -6.9738
  70   2.0000      -0.227615        -6.1937
  71   2.0000      -0.201449        -5.4817
  72   0.0000      -0.068096        -1.8530
  73   0.0000      -0.059632        -1.6227
  74   0.0000      -0.051547        -1.4027
  75   0.0000      -0.041870        -1.1393
  76   0.0000      -0.022934        -0.6241

MULLIKEN ATOMIC CHARGES
-----------------------
   0 C :   -0.123523
   1 C :   -0.124613
   2 C :   -0.321597
   3 C :    0.201273
   4 C :    0.207269
   5 C :   -0.322993
   6 O :   -0.083213
   7 C :    0.341516
   8 C :   -0.132518
   9 C :   -0.440093
  10 C :    0.219663
  11 C :   -0.341889
  12 C :    0.488573
  13 O :   -0.085555
  14 Cl:   -0.084511
  15 Cl:   -0.096829
  16 Cl:   -0.105796
  17 H :    0.152531
  18 H :    0.152586
  19 H :    0.160529
  20 H :    0.160516
  21 H :    0.178675
Sum of atomic charges:    0.0000000

LOEWDIN ATOMIC CHARGES
----------------------
   0 C :   -0.158768
   1 C :   -0.159572
   2 C :   -0.114276
   3 C :    0.223095
   4 C :    0.223473
   5 C :   -0.115002
   6 O :   -0.569906
   7 C :    0.205682
   8 C :   -0.134827
   9 C :   -0.181183
  10 C :   -0.182950
  11 C :   -0.154020
  12 C :    0.215983
  13 O :   -0.568896
  14 Cl:    0.204011
  15 Cl:    0.165865
  16 Cl:    0.192615
  17 H :    0.171864
  18 H :    0.171891
  19 H :    0.186451
  20 H :    0.186351
  21 H :    0.192120

  Mayer bond orders larger than 0.100000
B(  0-C ,  1-C ) :   1.4126 B(  0-C ,  5-C ) :   1.3348 B(  0-C , 17-H ) :   0.9511
B(  1-C ,  2-C ) :   1.3342 B(  1-C , 18-H ) :   0.9513 B(  2-C ,  3-C ) :   1.3511
B(  2-C , 19-H ) :   0.9650 B(  3-C ,  4-C ) :   1.4636 B(  3-C , 13-O ) :   0.8988
B(  4-C ,  5-C ) :   1.3496 B(  4-C ,  6-O ) :   0.8967 B(  5-C , 20-H ) :   0.9649
B(  6-O ,  7-C ) :   1.0782 B(  7-C ,  8-C ) :   1.1248 B(  7-C , 10-C ) :   0.1031
B(  7-C , 11-C ) :  -0.1425 B(  7-C , 12-C ) :   1.3260 B(  7-C , 16-Cl) :  -0.1660
B(  8-C ,  9-C ) :   1.2561 B(  8-C , 11-C ) :   0.1064 B(  8-C , 12-C ) :  -0.1707
B(  8-C , 16-Cl) :   1.1812 B(  9-C , 10-C ) :   1.3048 B(  9-C , 15-Cl) :   0.1066
B(  9-C , 21-H ) :   0.9225 B( 10-C , 11-C ) :   1.1100 B( 10-C , 15-Cl) :   1.0396
B( 11-C , 12-C ) :   0.8424 B( 11-C , 14-Cl) :   1.3548 B( 12-C , 13-O ) :   1.0920
B( 12-C , 14-Cl) :  -0.1970

Dispersion correction           -0.011947995
FINAL SINGLE POINT ENERGY     -1991.125436563790

DIPOLE MOMENT
-------------

Method             : SCF
Type of density    : Electron Density
Multiplicity       :   1
Irrep              :   0
Energy             : -1991.1243363525898076 Eh
Relativity type    :
Basis              : AO
                                X                 Y                 Z
Electronic contribution:    -21.723628786      -1.337383359      -0.001845419
Nuclear contribution   :     22.689674435       1.336108344       0.001900954
                        -----------------------------------------
Total Dipole Moment    :      0.966045649      -0.001275015       0.000055535
                        -----------------------------------------
Magnitude (a.u.)       :      0.966046492
Magnitude (Debye)      :      2.455495041

Rotational constants in cm-1:             0.018014             0.008574             0.005809
Rotational constants in MHz :           540.056174           257.049877           174.156728

                             ****ORCA TERMINATED NORMALLY****
TOTAL RUN TIME: 0 days 0 hours 0 minutes 47 seconds 141 msec
