                         Program Version 6.0.0  -   RELEASE  -
|  1> ! r2scan-3c def2/J RI DEFGRID2 scfconv6 printgap
|  2> %output
|  3>     printlevel normal
|  4> end
|  5> %cpcm
|  6>     smd true
|  7>     smdsolvent "water"
|  8> end
|  9> * xyz 0 1
| 10> C 4.8156309964 0.1204095053 0.0003477683
| 11> C 4.5281555538 1.4733510061 0.001235976
| 12> C 3.2111282387 1.9068853219 0.0008668933
| 13> C 2.1846545547 0.9794868234 7.6989e-06
| 14> C 2.4737562217 -0.3818912182 -0.0004144595
| 15> C 3.7889807497 -0.8114156607 -0.0003798673
| 16> O 1.4735283071 -1.3398456964 -0.0009235448
| 17> C 0.1952684796 -0.8682177883 -0.0003842654
| 18> C -0.8530053261 -1.7822843462 1.83156e-05
| 19> C -2.1754205169 -1.3630380589 0.0002719654
| 20> C -2.4542468805 -0.0089489733 6.13635e-05
| 21> C -1.4199993566 0.9254485546 -0.0003206945
| 22> C -0.0952318755 0.5004126282 -0.0003964323
| 23> O 0.8798884322 1.4492108135 -0.0004575765
| 24> Cl -1.7421543663 2.6181105635 -0.0005536866
| 25> Cl -4.086641178 0.5326002669 0.0006539384
| 26> Cl -0.4740722505 -3.4616858424 0.0001450862
| 27> H 5.83832532 -0.2186210916 4.21687e-05
| 28> H 5.3244030389 2.1991997114 0.0014348938
| 29> H 2.9575877166 2.9539062069 0.0010902471
| 30> H 3.9831862905 -1.8710920013 -0.0011116531
| 31> H -2.972963916 -2.0858601907 0.0009433343
| 32> *
| 33>
| 34>                          ****END OF INPUT****

CARTESIAN COORDINATES (ANGSTROEM)
---------------------------------
  C      4.815631    0.120410    0.000348
  C      4.528156    1.473351    0.001236
  C      3.211128    1.906885    0.000867
  C      2.184655    0.979487    0.000008
  C      2.473756   -0.381891   -0.000414
  C      3.788981   -0.811416   -0.000380
  O      1.473528   -1.339846   -0.000924
  C      0.195268   -0.868218   -0.000384
  C     -0.853005   -1.782284    0.000018
  C     -2.175421   -1.363038    0.000272
  C     -2.454247   -0.008949    0.000061
  C     -1.419999    0.925449   -0.000321
  C     -0.095232    0.500413   -0.000396
  O      0.879888    1.449211   -0.000458
  Cl    -1.742154    2.618111   -0.000554
  Cl    -4.086641    0.532600    0.000654
  Cl    -0.474072   -3.461686    0.000145
  H      5.838325   -0.218621    0.000042
  H      5.324403    2.199200    0.001435
  H      2.957588    2.953906    0.001090
  H      3.983186   -1.871092   -0.001112
  H     -2.972964   -2.085860    0.000943

 Total Charge           Charge          ....    0
 Multiplicity           Mult            ....    1
 Number of Electrons    NEL             ....  144
 Basis Dimension        Dim             ....  382

ORBITAL ENERGIES
----------------

  NO   OCC          E(Eh)            E(eV)
   0   2.0000    -101.239067     -2754.8551
   1   2.0000    -101.236784     -2754.7930
   2   2.0000    -101.236460     -2754.7841
   3   2.0000     -19.032280      -517.8947
   4   2.0000     -19.030987      -517.8595
   5   2.0000     -10.138093      -275.8715
   6   2.0000     -10.133920      -275.7580
   7   2.0000     -10.122597      -275.4499
   8   2.0000     -10.121943      -275.4321
   9   2.0000     -10.119946      -275.3777
  10   2.0000     -10.118022      -275.3254
  11   2.0000     -10.117588      -275.3136
  12   2.0000     -10.065503      -273.8963
  13   2.0000     -10.047605      -273.4092
  14   2.0000     -10.047434      -273.4046
  15   2.0000     -10.042132      -273.2603
  16   2.0000     -10.041651      -273.2472
  17   2.0000      -9.394651      -255.6415
  18   2.0000      -9.392562      -255.5846
  19   2.0000      -9.392380      -255.5797
  20   2.0000      -7.141249      -194.3233
  21   2.0000      -7.138996      -194.2620
  22   2.0000      -7.138808      -194.2569
  23   2.0000      -7.130921      -194.0422
  24   2.0000      -7.130085      -194.0195
  25   2.0000      -7.128817      -193.9850
  26   2.0000      -7.128615      -193.9795
  27   2.0000      -7.128153      -193.9669
  28   2.0000      -7.127962      -193.9617
  29   2.0000      -1.101337       -29.9689
  30   2.0000      -1.068031       -29.0626
  31   2.0000      -0.905786       -24.6477
  32   2.0000      -0.867669       -23.6105
  33   2.0000      -0.848159       -23.0796
  34   2.0000      -0.834579       -22.7100
  35   2.0000      -0.801861       -21.8198
  36   2.0000      -0.747982       -20.3536
  37   2.0000      -0.747257       -20.3339
  38   2.0000      -0.709977       -19.3195
  39   2.0000      -0.700959       -19.0741
  40   2.0000      -0.648371       -17.6431
  41   2.0000      -0.616811       -16.7843
  42   2.0000      -0.588559       -16.0155
  43   2.0000      -0.570098       -15.5131
  44   2.0000      -0.561534       -15.2801
  45   2.0000      -0.513409       -13.9706
  46   2.0000      -0.494491       -13.4558
  47   2.0000      -0.473989       -12.8979
  48   2.0000      -0.468221       -12.7409
  49   2.0000      -0.463583       -12.6147
  50   2.0000      -0.442311       -12.0359
  51   2.0000      -0.431835       -11.7508
  52   2.0000      -0.420890       -11.4530
  53   2.0000      -0.409039       -11.1305
  54   2.0000      -0.407341       -11.0843
  55   2.0000      -0.402425       -10.9505
  56   2.0000      -0.401898       -10.9362
  57   2.0000      -0.392295       -10.6749
  58   2.0000      -0.359018        -9.7694
  59   2.0000      -0.356995        -9.7143
  60   2.0000      -0.346956        -9.4411
  61   2.0000      -0.346391        -9.4258
  62   2.0000      -0.328161        -8.9297
  63   2.0000      -0.319605        -8.6969
  64   2.0000      -0.314450        -8.5566
  65   2.0000      -0.301931        -8.2160
  66   2.0000      -0.293126        -7.9764
  67   2.0000      -0.290764        -7.9121
  68   2.0000      -0.256858        -6.9895
  69   2.0000      -0.249933        -6.8010
  70   2.0000      -0.226067        -6.1516
  71   2.0000      -0.196984        -5.3602
  72   0.0000      -0.063055        -1.7158
  73   0.0000      -0.057633        -1.5683
  74   0.0000      -0.042918        -1.1679
  75   0.0000      -0.041120        -1.1189
  76   0.0000      -0.016620        -0.4522

MULLIKEN ATOMIC CHARGES
-----------------------
   0 C :   -0.162738
   1 C :   -0.163877
   2 C :   -0.345947
   3 C :    0.203259
   4 C :    0.210280
   5 C :   -0.347785
   6 O :   -0.093286
   7 C :    0.361841
   8 C :   -0.153724
   9 C :   -0.423856
  10 C :    0.201053
  11 C :   -0.336442
  12 C :    0.506675
  13 O :   -0.095501
  14 Cl:   -0.103348
  15 Cl:   -0.111601
  16 Cl:   -0.120162
  17 H :    0.187797
  18 H :    0.187751
  19 H :    0.193507
  20 H :    0.193511
  21 H :    0.212590
Sum of atomic charges:    0.0000000

LOEWDIN ATOMIC CHARGES
----------------------
   0 C :   -0.163727
   1 C :   -0.164488
   2 C :   -0.118213
   3 C :    0.220313
   4 C :    0.220390
   5 C :   -0.118928
   6 O :   -0.577438
   7 C :    0.213120
   8 C :   -0.136286
   9 C :   -0.174045
  10 C :   -0.185489
  11 C :   -0.155396
  12 C :    0.222442
  13 O :   -0.576292
  14 Cl:    0.190639
  15 Cl:    0.154756
  16 Cl:    0.182821
  17 H :    0.183343
  18 H :    0.183320
  19 H :    0.197262
  20 H :    0.197198
  21 H :    0.204697

  Mayer bond orders larger than 0.100000
B(  0-C ,  1-C ) :   1.3815 B(  0-C ,  5-C ) :   1.3186 B(  0-C , 17-H ) :   0.9557
B(  1-C ,  2-C ) :   1.3178 B(  1-C , 18-H ) :   0.9560 B(  2-C ,  3-C ) :   1.2984
B(  2-C , 19-H ) :   0.9735 B(  3-C ,  4-C ) :   1.4474 B(  3-C , 13-O ) :   0.8957
B(  4-C ,  5-C ) :   1.2965 B(  4-C ,  6-O ) :   0.8928 B(  5-C , 20-H ) :   0.9736
B(  6-O ,  7-C ) :   1.0838 B(  7-C ,  8-C ) :   1.0972 B(  7-C , 10-C ) :   0.1025
B(  7-C , 11-C ) :  -0.1413 B(  7-C , 12-C ) :   1.3254 B(  7-C , 16-Cl) :  -0.1629
B(  8-C ,  9-C ) :   1.2706 B(  8-C , 11-C ) :   0.1056 B(  8-C , 12-C ) :  -0.1713
B(  8-C , 16-Cl) :   1.1687 B(  9-C , 10-C ) :   1.3156 B(  9-C , 15-Cl) :   0.1003
B(  9-C , 21-H ) :   0.9103 B( 10-C , 11-C ) :   1.0937 B( 10-C , 15-Cl) :   1.0414
B( 11-C , 12-C ) :   0.8334 B( 11-C , 14-Cl) :   1.3246 B( 12-C , 13-O ) :   1.0990
B( 12-C , 14-Cl) :  -0.1848

Dispersion correction           -0.011947995
FINAL SINGLE POINT ENERGY     -1991.127310193712

DIPOLE MOMENT
-------------

Method             : SCF
Type of density    : Electron Density
Multiplicity       :   1
Irrep              :   0
Energy             : -1991.1262099825109999 Eh
Relativity type    :
Basis              : AO
                                X                 Y                 Z
Electronic contribution:    -21.466709432      -1.417673829      -0.001817074
Nuclear contribution   :     22.689674435       1.336108344       0.001900954
                        -----------------------------------------
Total Dipole Moment    :      1.222965003      -0.081565484       0.000083881
                        -----------------------------------------
Magnitude (a.u.)       :      1.225681987
Magnitude (Debye)      :      3.115436023

Rotational constants in cm-1:             0.018014             0.008574             0.005809
Rotational constants in MHz :           540.056174           257.049877           174.156728

                             ****ORCA TERMINATED NORMALLY****
TOTAL RUN TIME: 0 days 0 hours 1 minutes 0 seconds 438 msec
