                         Program Version 6.0.0  -   RELEASE  -
|  1> ! pbe def2-sv(p) def2/J RI DEFGRID1 loosescf d4 GCP(DFT/SV(P)) printgap
|  2> %output
|  3>     printlevel normal
|  4> end
|  5> * xyz 0 1
|  6> C -2.3505059888 -0.8969558021 -0.4425249143
|  7> C -0.9861863634 -0.4742673599 0.1209810948
|  8> H -0.9774210718 -0.7101392786 1.1977442301
|  9> C -0.7034422482 1.0367154934 -0.0338476027
| 10> H -1.3334062368 1.4544868228 -0.8319525487
| 11> C 0.7714583908 1.2595016647 -0.456569304
| 12> H 1.0507804097 2.2968033744 -0.2377021024
| 13> C 1.6822916842 0.3287167099 0.3606680988
| 14> H 2.7175836988 0.4275392136 0.0166373186
| 15> C 1.2678404342 -1.1451661793 0.1101691808
| 16> H 1.2047275723 -1.6542919905 1.0940030585
| 17> O 0.006360953 -1.2394619157 -0.5331439001
| 18> O 2.2035893153 -1.7332877312 -0.7131666071
| 19> O 1.6768006676 0.657646407 1.7242069665
| 20> O 0.9419997587 1.1069757115 -1.8391861555
| 21> O -0.9874734133 1.6440566728 1.2073548671
| 22> O -3.4120269681 -0.5666345045 0.4122249148
| 23> H -2.3604067491 -1.9849147585 -0.5346471279
| 24> H -2.4910010099 -0.4607387206 -1.4395845062
| 25> H 1.9372718436 -2.6419709286 -0.9258643966
| 26> H 0.7717232963 0.888955236 2.0000143623
| 27> H 0.8456392158 0.1703074132 -2.0709665783
| 28> H -0.9659834612 2.6083540471 1.1201699215
| 29> H -3.4173806924 0.3869162759 0.577172005
| 30> *
| 31>
| 32>                          ****END OF INPUT****

CARTESIAN COORDINATES (ANGSTROEM)
---------------------------------
  C     -2.350506   -0.896956   -0.442525
  C     -0.986186   -0.474267    0.120981
  H     -0.977421   -0.710139    1.197744
  C     -0.703442    1.036715   -0.033848
  H     -1.333406    1.454487   -0.831953
  C      0.771458    1.259502   -0.456569
  H      1.050780    2.296803   -0.237702
  C      1.682292    0.328717    0.360668
  H      2.717584    0.427539    0.016637
  C      1.267840   -1.145166    0.110169
  H      1.204728   -1.654292    1.094003
  O      0.006361   -1.239462   -0.533144
  O      2.203589   -1.733288   -0.713167
  O      1.676801    0.657646    1.724207
  O      0.942000    1.106976   -1.839186
  O     -0.987473    1.644057    1.207355
  O     -3.412027   -0.566635    0.412225
  H     -2.360407   -1.984915   -0.534647
  H     -2.491001   -0.460739   -1.439585
  H      1.937272   -2.641971   -0.925864
  H      0.771723    0.888955    2.000014
  H      0.845639    0.170307   -2.070967
  H     -0.965983    2.608354    1.120170
  H     -3.417381    0.386916    0.577172

 Total Charge           Charge          ....    0
 Multiplicity           Mult            ....    1
 Number of Electrons    NEL             ....   96
 Basis Dimension        Dim             ....  192

ORBITAL ENERGIES
----------------

  NO   OCC          E(Eh)            E(eV)
   0   2.0000     -18.790093      -511.3044
   1   2.0000     -18.784974      -511.1651
   2   2.0000     -18.771817      -510.8071
   3   2.0000     -18.755235      -510.3559
   4   2.0000     -18.750373      -510.2236
   5   2.0000     -18.745939      -510.1029
   6   2.0000      -9.990263      -271.8489
   7   2.0000      -9.957723      -270.9634
   8   2.0000      -9.955023      -270.8900
   9   2.0000      -9.948102      -270.7016
  10   2.0000      -9.940327      -270.4900
  11   2.0000      -9.939491      -270.4673
  12   2.0000      -0.995992       -27.1023
  13   2.0000      -0.964496       -26.2453
  14   2.0000      -0.934660       -25.4334
  15   2.0000      -0.932484       -25.3742
  16   2.0000      -0.924741       -25.1635
  17   2.0000      -0.920708       -25.0537
  18   2.0000      -0.709304       -19.3011
  19   2.0000      -0.687625       -18.7112
  20   2.0000      -0.628435       -17.1006
  21   2.0000      -0.599233       -16.3060
  22   2.0000      -0.570300       -15.5186
  23   2.0000      -0.525355       -14.2956
  24   2.0000      -0.518509       -14.1093
  25   2.0000      -0.499426       -13.5901
  26   2.0000      -0.493339       -13.4244
  27   2.0000      -0.471405       -12.8276
  28   2.0000      -0.455820       -12.4035
  29   2.0000      -0.446830       -12.1589
  30   2.0000      -0.415917       -11.3177
  31   2.0000      -0.399981       -10.8840
  32   2.0000      -0.388352       -10.5676
  33   2.0000      -0.378756       -10.3065
  34   2.0000      -0.361692        -9.8421
  35   2.0000      -0.355597        -9.6763
  36   2.0000      -0.338636        -9.2148
  37   2.0000      -0.326176        -8.8757
  38   2.0000      -0.313418        -8.5285
  39   2.0000      -0.311098        -8.4654
  40   2.0000      -0.289169        -7.8687
  41   2.0000      -0.274522        -7.4701
  42   2.0000      -0.267499        -7.2790
  43   2.0000      -0.256932        -6.9915
  44   2.0000      -0.242761        -6.6059
  45   2.0000      -0.230110        -6.2616
  46   2.0000      -0.213560        -5.8113
  47   2.0000      -0.206032        -5.6064
  48   0.0000      -0.005346        -0.1455
  49   0.0000       0.021789         0.5929
  50   0.0000       0.028853         0.7851
  51   0.0000       0.041274         1.1231
  52   0.0000       0.053367         1.4522

MULLIKEN ATOMIC CHARGES
-----------------------
   0 C :    0.075034
   1 C :    0.007645
   2 H :    0.071597
   3 C :   -0.004356
   4 H :    0.067611
   5 C :    0.029314
   6 H :    0.066541
   7 C :    0.045369
   8 H :    0.093143
   9 C :    0.178448
  10 H :    0.058308
  11 O :   -0.317996
  12 O :   -0.376118
  13 O :   -0.426791
  14 O :   -0.415894
  15 O :   -0.413521
  16 O :   -0.433122
  17 H :    0.092723
  18 H :    0.077560
  19 H :    0.308164
  20 H :    0.299435
  21 H :    0.302413
  22 H :    0.313562
  23 H :    0.300930
Sum of atomic charges:    0.0000000

LOEWDIN ATOMIC CHARGES
----------------------
   0 C :   -0.118736
   1 C :   -0.072939
   2 H :    0.109830
   3 C :   -0.091253
   4 H :    0.104756
   5 C :   -0.080197
   6 H :    0.112824
   7 C :   -0.083152
   8 H :    0.126765
   9 C :   -0.006417
  10 H :    0.088334
  11 O :   -0.162050
  12 O :   -0.287682
  13 O :   -0.318247
  14 O :   -0.312258
  15 O :   -0.308075
  16 O :   -0.328759
  17 H :    0.118009
  18 H :    0.097547
  19 H :    0.291081
  20 H :    0.269428
  21 H :    0.275522
  22 H :    0.293327
  23 H :    0.282342

  Mayer bond orders larger than 0.100000
B(  0-C ,  1-C ) :   1.0420 B(  0-C , 16-O ) :   1.0796 B(  0-C , 17-H ) :   0.9177
B(  0-C , 18-H ) :   0.9126 B(  1-C ,  2-H ) :   0.8682 B(  1-C ,  3-C ) :   0.9797
B(  1-C , 11-O ) :   1.0269 B(  3-C ,  4-H ) :   0.8845 B(  3-C ,  5-C ) :   0.9689
B(  3-C , 15-O ) :   1.0199 B(  5-C ,  6-H ) :   0.8955 B(  5-C ,  7-C ) :   1.0059
B(  5-C , 14-O ) :   1.0639 B(  7-C ,  8-H ) :   0.8888 B(  7-C ,  9-C ) :   0.9350
B(  7-C , 13-O ) :   1.0728 B(  9-C , 10-H ) :   0.8960 B(  9-C , 11-O ) :   0.9807
B(  9-C , 12-O ) :   1.1657 B( 12-O , 19-H ) :   0.8386 B( 13-O , 20-H ) :   0.8111
B( 14-O , 21-H ) :   0.8304 B( 15-O , 20-H ) :   0.1003 B( 15-O , 22-H ) :   0.8378
B( 16-O , 23-H ) :   0.8465

Dispersion correction           -0.024901458
FINAL SINGLE POINT ENERGY      -685.692146115757

DIPOLE MOMENT
-------------

Method             : SCF
Type of density    : Electron Density
Multiplicity       :   1
Irrep              :   0
Energy             :  -685.8241485327123428 Eh
Relativity type    :
Basis              : AO
                                X                 Y                 Z
Electronic contribution:      2.239330281      -0.474007104      -0.080684155
Nuclear contribution   :     -2.824919317       0.731062271      -0.028987344
                        -----------------------------------------
Total Dipole Moment    :     -0.585589036       0.257055168      -0.109671498
                        -----------------------------------------
Magnitude (a.u.)       :      0.648860320
Magnitude (Debye)      :      1.649271865

Rotational constants in cm-1:             0.042157             0.025195             0.021404
Rotational constants in MHz :          1263.821614           755.329943           641.687702

                             ****ORCA TERMINATED NORMALLY****
TOTAL RUN TIME: 0 days 0 hours 0 minutes 12 seconds 32 msec
