                         Program Version 6.0.0  -   RELEASE  -
|  1> ! r2scan-3c def2/J RI DEFGRID2 scfconv6 printgap
|  2> %output
|  3>     printlevel normal
|  4> end
|  5> * xyz 0 1
|  6> C 1.2760557387 1.078870101 0.8000154581
|  7> C 0.706017468 0.2738195725 -0.376009241
|  8> C 1.5055871951 -1.0075207747 -0.5958955448
|  9> C -0.7660025322 0.0342895219 -0.1027574917
| 10> O -1.6134057555 0.7731755829 -0.5707261908
| 11> C -1.1214090642 -1.1191685683 0.783979985
| 12> H 2.3008208825 1.3665621423 0.5816268666
| 13> H 0.6891956448 1.9800898474 0.9635592213
| 14> H 1.2687942521 0.4868826229 1.711418893
| 15> H 0.7607970048 0.8989725066 -1.2741145396
| 16> H 1.5408024776 -1.6081783162 0.3078387197
| 17> H 2.5246924324 -0.7515227287 -0.8743037991
| 18> H 1.0714595944 -1.5984942385 -1.398573339
| 19> H -0.9603820546 -2.0444534506 0.235207497
| 20> H -2.1671614976 -1.0554196869 1.0720279607
| 21> H -0.4877590451 -1.1328044468 1.6653670532
| 22> *
| 23>
| 24>                          ****END OF INPUT****

CARTESIAN COORDINATES (ANGSTROEM)
---------------------------------
  C      1.276056    1.078870    0.800015
  C      0.706017    0.273820   -0.376009
  C      1.505587   -1.007521   -0.595896
  C     -0.766003    0.034290   -0.102757
  O     -1.613406    0.773176   -0.570726
  C     -1.121409   -1.119169    0.783980
  H      2.300821    1.366562    0.581627
  H      0.689196    1.980090    0.963559
  H      1.268794    0.486883    1.711419
  H      0.760797    0.898973   -1.274115
  H      1.540802   -1.608178    0.307839
  H      2.524692   -0.751523   -0.874304
  H      1.071460   -1.598494   -1.398573
  H     -0.960382   -2.044453    0.235207
  H     -2.167161   -1.055420    1.072028
  H     -0.487759   -1.132804    1.665367

 Total Charge           Charge          ....    0
 Multiplicity           Mult            ....    1
 Number of Electrons    NEL             ....   48
 Basis Dimension        Dim             ....  169

ORBITAL ENERGIES
----------------

  NO   OCC          E(Eh)            E(eV)
   0   2.0000     -18.934370      -515.2304
   1   2.0000     -10.115301      -275.2513
   2   2.0000     -10.046186      -273.3706
   3   2.0000     -10.034214      -273.0448
   4   2.0000     -10.033178      -273.0166
   5   2.0000     -10.032080      -272.9868
   6   2.0000      -0.999739       -27.2043
   7   2.0000      -0.782966       -21.3056
   8   2.0000      -0.708796       -19.2873
   9   2.0000      -0.666003       -18.1229
  10   2.0000      -0.594467       -16.1763
  11   2.0000      -0.495369       -13.4797
  12   2.0000      -0.445191       -12.1143
  13   2.0000      -0.432820       -11.7776
  14   2.0000      -0.422871       -11.5069
  15   2.0000      -0.391665       -10.6578
  16   2.0000      -0.381991       -10.3945
  17   2.0000      -0.377943       -10.2844
  18   2.0000      -0.363189        -9.8829
  19   2.0000      -0.338319        -9.2061
  20   2.0000      -0.334149        -9.0927
  21   2.0000      -0.315755        -8.5921
  22   2.0000      -0.307115        -8.3570
  23   2.0000      -0.209036        -5.6882
  24   0.0000      -0.044065        -1.1991
  25   0.0000       0.069404         1.8886
  26   0.0000       0.113225         3.0810
  27   0.0000       0.117379         3.1941
  28   0.0000       0.125377         3.4117

MULLIKEN ATOMIC CHARGES
-----------------------
   0 C :   -0.498738
   1 C :   -0.040232
   2 C :   -0.483079
   3 C :    0.268486
   4 O :   -0.342865
   5 C :   -0.517298
   6 H :    0.152713
   7 H :    0.165094
   8 H :    0.148857
   9 H :    0.170263
  10 H :    0.150303
  11 H :    0.152463
  12 H :    0.158735
  13 H :    0.171867
  14 H :    0.177824
  15 H :    0.165606
Sum of atomic charges:   -0.0000000

LOEWDIN ATOMIC CHARGES
----------------------
   0 C :   -0.390643
   1 C :   -0.223241
   2 C :   -0.405405
   3 C :    0.219400
   4 O :   -0.464625
   5 C :   -0.383736
   6 H :    0.157851
   7 H :    0.164063
   8 H :    0.152823
   9 H :    0.178816
  10 H :    0.155357
  11 H :    0.158443
  12 H :    0.157674
  13 H :    0.178467
  14 H :    0.176432
  15 H :    0.168323

  Mayer bond orders larger than 0.100000
B(  0-C ,  1-C ) :   0.9075 B(  0-C ,  6-H ) :   0.9662 B(  0-C ,  7-H ) :   0.9666
B(  0-C ,  8-H ) :   0.9805 B(  1-C ,  2-C ) :   0.8765 B(  1-C ,  3-C ) :   0.8961
B(  1-C ,  9-H ) :   0.9641 B(  2-C , 10-H ) :   0.9658 B(  2-C , 11-H ) :   0.9655
B(  2-C , 12-H ) :   0.9795 B(  3-C ,  4-O ) :   1.9535 B(  3-C ,  5-C ) :   0.8935
B(  5-C , 13-H ) :   0.9349 B(  5-C , 14-H ) :   0.9727 B(  5-C , 15-H ) :   0.9632

Dispersion correction           -0.004002101
FINAL SINGLE POINT ENERGY      -271.703752907569

DIPOLE MOMENT
-------------

Method             : SCF
Type of density    : Electron Density
Multiplicity       :   1
Irrep              :   0
Energy             :  -271.7073640658146587 Eh
Relativity type    :
Basis              : AO
                                X                 Y                 Z
Electronic contribution:     -5.217101081       2.563628235      -2.352346048
Nuclear contribution   :      6.112852673      -3.233050993       2.796700484
                        -----------------------------------------
Total Dipole Moment    :      0.895751592      -0.669422759       0.444354435
                        -----------------------------------------
Magnitude (a.u.)       :      1.203307363
Magnitude (Debye)      :      3.058564248

Rotational constants in cm-1:             0.153183             0.093886             0.079730
Rotational constants in MHz :          4592.297038          2814.636302          2390.231354

                             ****ORCA TERMINATED NORMALLY****
TOTAL RUN TIME: 0 days 0 hours 0 minutes 20 seconds 657 msec
