                         Program Version 6.0.0  -   RELEASE  -
|  1> ! r2scan-3c def2/J RI DEFGRID2 scfconv6 printgap
|  2> %output
|  3>     printlevel normal
|  4> end
|  5> %cpcm
|  6>     smd true
|  7>     smdsolvent "water"
|  8> end
|  9> * xyz 0 1
| 10> C 1.2760557387 1.078870101 0.8000154581
| 11> C 0.706017468 0.2738195725 -0.376009241
| 12> C 1.5055871951 -1.0075207747 -0.5958955448
| 13> C -0.7660025322 0.0342895219 -0.1027574917
| 14> O -1.6134057555 0.7731755829 -0.5707261908
| 15> C -1.1214090642 -1.1191685683 0.783979985
| 16> H 2.3008208825 1.3665621423 0.5816268666
| 17> H 0.6891956448 1.9800898474 0.9635592213
| 18> H 1.2687942521 0.4868826229 1.711418893
| 19> H 0.7607970048 0.8989725066 -1.2741145396
| 20> H 1.5408024776 -1.6081783162 0.3078387197
| 21> H 2.5246924324 -0.7515227287 -0.8743037991
| 22> H 1.0714595944 -1.5984942385 -1.398573339
| 23> H -0.9603820546 -2.0444534506 0.235207497
| 24> H -2.1671614976 -1.0554196869 1.0720279607
| 25> H -0.4877590451 -1.1328044468 1.6653670532
| 26> *
| 27>
| 28>                          ****END OF INPUT****

CARTESIAN COORDINATES (ANGSTROEM)
---------------------------------
  C      1.276056    1.078870    0.800015
  C      0.706017    0.273820   -0.376009
  C      1.505587   -1.007521   -0.595896
  C     -0.766003    0.034290   -0.102757
  O     -1.613406    0.773176   -0.570726
  C     -1.121409   -1.119169    0.783980
  H      2.300821    1.366562    0.581627
  H      0.689196    1.980090    0.963559
  H      1.268794    0.486883    1.711419
  H      0.760797    0.898973   -1.274115
  H      1.540802   -1.608178    0.307839
  H      2.524692   -0.751523   -0.874304
  H      1.071460   -1.598494   -1.398573
  H     -0.960382   -2.044453    0.235207
  H     -2.167161   -1.055420    1.072028
  H     -0.487759   -1.132804    1.665367

 Total Charge           Charge          ....    0
 Multiplicity           Mult            ....    1
 Number of Electrons    NEL             ....   48
 Basis Dimension        Dim             ....  169

ORBITAL ENERGIES
----------------

  NO   OCC          E(Eh)            E(eV)
   0   2.0000     -18.944962      -515.5186
   1   2.0000     -10.122377      -275.4439
   2   2.0000     -10.037926      -273.1459
   3   2.0000     -10.022423      -272.7240
   4   2.0000     -10.019318      -272.6395
   5   2.0000     -10.015202      -272.5275
   6   2.0000      -1.013052       -27.5666
   7   2.0000      -0.772801       -21.0290
   8   2.0000      -0.699177       -19.0256
   9   2.0000      -0.650940       -17.7130
  10   2.0000      -0.586136       -15.9496
  11   2.0000      -0.489145       -13.3103
  12   2.0000      -0.443607       -12.0712
  13   2.0000      -0.423879       -11.5343
  14   2.0000      -0.417944       -11.3728
  15   2.0000      -0.391493       -10.6531
  16   2.0000      -0.369074       -10.0430
  17   2.0000      -0.364293        -9.9129
  18   2.0000      -0.346963        -9.4413
  19   2.0000      -0.334959        -9.1147
  20   2.0000      -0.329627        -8.9696
  21   2.0000      -0.305816        -8.3217
  22   2.0000      -0.299903        -8.1608
  23   2.0000      -0.220145        -5.9905
  24   0.0000      -0.047379        -1.2892
  25   0.0000       0.083215         2.2644
  26   0.0000       0.125254         3.4083
  27   0.0000       0.131942         3.5903
  28   0.0000       0.137914         3.7528

MULLIKEN ATOMIC CHARGES
-----------------------
   0 C :   -0.530996
   1 C :   -0.025121
   2 C :   -0.518303
   3 C :    0.305639
   4 O :   -0.454157
   5 C :   -0.546622
   6 H :    0.170728
   7 H :    0.164728
   8 H :    0.174866
   9 H :    0.171430
  10 H :    0.169529
  11 H :    0.166835
  12 H :    0.170064
  13 H :    0.203074
  14 H :    0.177752
  15 H :    0.200555
Sum of atomic charges:   -0.0000000

LOEWDIN ATOMIC CHARGES
----------------------
   0 C :   -0.393022
   1 C :   -0.218333
   2 C :   -0.406980
   3 C :    0.236744
   4 O :   -0.544649
   5 C :   -0.381521
   6 H :    0.164017
   7 H :    0.162682
   8 H :    0.162137
   9 H :    0.179155
  10 H :    0.162295
  11 H :    0.162807
  12 H :    0.161867
  13 H :    0.192365
  14 H :    0.175996
  15 H :    0.184440

  Mayer bond orders larger than 0.100000
B(  0-C ,  1-C ) :   0.8931 B(  0-C ,  6-H ) :   0.9623 B(  0-C ,  7-H ) :   0.9639
B(  0-C ,  8-H ) :   0.9749 B(  1-C ,  2-C ) :   0.8745 B(  1-C ,  3-C ) :   0.9092
B(  1-C ,  9-H ) :   0.9653 B(  2-C , 10-H ) :   0.9646 B(  2-C , 11-H ) :   0.9624
B(  2-C , 12-H ) :   0.9735 B(  3-C ,  4-O ) :   1.8719 B(  3-C ,  5-C ) :   0.9192
B(  5-C , 13-H ) :   0.9219 B(  5-C , 14-H ) :   0.9683 B(  5-C , 15-H ) :   0.9458

Dispersion correction           -0.004002101
FINAL SINGLE POINT ENERGY      -271.710657807782

DIPOLE MOMENT
-------------

Method             : SCF
Type of density    : Electron Density
Multiplicity       :   1
Irrep              :   0
Energy             :  -271.7142689660273049 Eh
Relativity type    :
Basis              : AO
                                X                 Y                 Z
Electronic contribution:     -4.828827855       2.210020104      -2.116235552
Nuclear contribution   :      6.112852673      -3.233050993       2.796700484
                        -----------------------------------------
Total Dipole Moment    :      1.284024818      -1.023030890       0.680464931
                        -----------------------------------------
Magnitude (a.u.)       :      1.777173165
Magnitude (Debye)      :      4.517215197

Rotational constants in cm-1:             0.153183             0.093886             0.079730
Rotational constants in MHz :          4592.297038          2814.636302          2390.231354

                             ****ORCA TERMINATED NORMALLY****
TOTAL RUN TIME: 0 days 0 hours 0 minutes 22 seconds 763 msec
