                         Program Version 6.0.0  -   RELEASE  -
|  1> ! pbe def2-sv(p) def2/J RI DEFGRID1 loosescf d4 GCP(DFT/SV(P)) printgap
|  2> %output
|  3>     printlevel normal
|  4> end
|  5> * xyz 0 1
|  6> C -2.4756623677 -0.5155782976 -0.2314382801
|  7> C -1.0617237185 -0.1958440919 0.2710571199
|  8> H -1.0154117439 -0.3492485113 1.3608338562
|  9> C -0.6419326516 1.2581016607 -0.050139417
| 10> H -1.2519264671 1.6382700284 -0.8811365788
| 11> C 0.8445489825 1.3047130092 -0.4755901884
| 12> H 1.2096410026 2.322393703 -0.2755740745
| 13> C 1.6376511161 0.3216550316 0.3910416047
| 14> H 2.6935213831 0.336322077 0.0926104221
| 15> C 1.1256912438 -1.1188984536 0.1109175609
| 16> H 1.2020639328 -1.6964639509 1.0475311047
| 17> O -0.2043873181 -1.1307877409 -0.361659563
| 18> O 1.899050259 -1.7744250037 -0.8255641484
| 19> O 1.5848951637 0.6425108251 1.7573638195
| 20> O 1.0442139119 0.941193607 -1.8143483825
| 21> O -0.7580523265 2.0965129551 1.0772333187
| 22> O -2.9176485737 -1.7742305528 0.2024879817
| 23> H -2.4715385687 -0.4630137549 -1.3275837843
| 24> H -3.1896676445 0.2073215916 0.1662145951
| 25> H 1.7828881216 -1.3270887056 -1.6815003347
| 26> H 0.8295087324 1.2329023508 1.9261256855
| 27> H 0.7027477353 1.6288588105 -2.4037395817
| 28> H -1.6866619194 2.2088551019 1.324395149
| 29> H -2.2830240474 -2.4395422268 -0.1007731826
| 30> *
| 31>
| 32>                          ****END OF INPUT****

CARTESIAN COORDINATES (ANGSTROEM)
---------------------------------
  C     -2.475662   -0.515578   -0.231438
  C     -1.061724   -0.195844    0.271057
  H     -1.015412   -0.349249    1.360834
  C     -0.641933    1.258102   -0.050139
  H     -1.251926    1.638270   -0.881137
  C      0.844549    1.304713   -0.475590
  H      1.209641    2.322394   -0.275574
  C      1.637651    0.321655    0.391042
  H      2.693521    0.336322    0.092610
  C      1.125691   -1.118898    0.110918
  H      1.202064   -1.696464    1.047531
  O     -0.204387   -1.130788   -0.361660
  O      1.899050   -1.774425   -0.825564
  O      1.584895    0.642511    1.757364
  O      1.044214    0.941194   -1.814348
  O     -0.758052    2.096513    1.077233
  O     -2.917649   -1.774231    0.202488
  H     -2.471539   -0.463014   -1.327584
  H     -3.189668    0.207322    0.166215
  H      1.782888   -1.327089   -1.681500
  H      0.829509    1.232902    1.926126
  H      0.702748    1.628859   -2.403740
  H     -1.686662    2.208855    1.324395
  H     -2.283024   -2.439542   -0.100773

 Total Charge           Charge          ....    0
 Multiplicity           Mult            ....    1
 Number of Electrons    NEL             ....   96
 Basis Dimension        Dim             ....  192

ORBITAL ENERGIES
----------------

  NO   OCC          E(Eh)            E(eV)
   0   2.0000     -18.789057      -511.2762
   1   2.0000     -18.777380      -510.9585
   2   2.0000     -18.767824      -510.6985
   3   2.0000     -18.746982      -510.1313
   4   2.0000     -18.744480      -510.0632
   5   2.0000     -18.743286      -510.0307
   6   2.0000      -9.974765      -271.4272
   7   2.0000      -9.961844      -271.0755
   8   2.0000      -9.958012      -270.9713
   9   2.0000      -9.948724      -270.7185
  10   2.0000      -9.942319      -270.5443
  11   2.0000      -9.936478      -270.3853
  12   2.0000      -0.982641       -26.7390
  13   2.0000      -0.962515       -26.1914
  14   2.0000      -0.949892       -25.8479
  15   2.0000      -0.927715       -25.2444
  16   2.0000      -0.919402       -25.0182
  17   2.0000      -0.903923       -24.5970
  18   2.0000      -0.711535       -19.3618
  19   2.0000      -0.687692       -18.7131
  20   2.0000      -0.626390       -17.0449
  21   2.0000      -0.590013       -16.0551
  22   2.0000      -0.571770       -15.5586
  23   2.0000      -0.525507       -14.2998
  24   2.0000      -0.513708       -13.9787
  25   2.0000      -0.504040       -13.7156
  26   2.0000      -0.472765       -12.8646
  27   2.0000      -0.466114       -12.6836
  28   2.0000      -0.460161       -12.5216
  29   2.0000      -0.438227       -11.9248
  30   2.0000      -0.422066       -11.4850
  31   2.0000      -0.397242       -10.8095
  32   2.0000      -0.388053       -10.5595
  33   2.0000      -0.380749       -10.3607
  34   2.0000      -0.363667        -9.8959
  35   2.0000      -0.357454        -9.7268
  36   2.0000      -0.338644        -9.2150
  37   2.0000      -0.326349        -8.8804
  38   2.0000      -0.312841        -8.5128
  39   2.0000      -0.291082        -7.9207
  40   2.0000      -0.286862        -7.8059
  41   2.0000      -0.272513        -7.4155
  42   2.0000      -0.260722        -7.0946
  43   2.0000      -0.249083        -6.7779
  44   2.0000      -0.241981        -6.5847
  45   2.0000      -0.224249        -6.1021
  46   2.0000      -0.218500        -5.9457
  47   2.0000      -0.195391        -5.3169
  48   0.0000      -0.008769        -0.2386
  49   0.0000       0.003907         0.1063
  50   0.0000       0.039512         1.0752
  51   0.0000       0.057668         1.5692
  52   0.0000       0.058549         1.5932

MULLIKEN ATOMIC CHARGES
-----------------------
   0 C :    0.074166
   1 C :    0.020080
   2 H :    0.058504
   3 C :    0.009950
   4 H :    0.048897
   5 C :    0.031112
   6 H :    0.083553
   7 C :   -0.002628
   8 H :    0.083204
   9 C :    0.231182
  10 H :    0.067683
  11 O :   -0.312298
  12 O :   -0.395060
  13 O :   -0.425054
  14 O :   -0.412247
  15 O :   -0.413897
  16 O :   -0.433206
  17 H :    0.077551
  18 H :    0.071910
  19 H :    0.301032
  20 H :    0.306373
  21 H :    0.308698
  22 H :    0.316176
  23 H :    0.304319
Sum of atomic charges:    0.0000000

LOEWDIN ATOMIC CHARGES
----------------------
   0 C :   -0.125900
   1 C :   -0.085069
   2 H :    0.105292
   3 C :   -0.079526
   4 H :    0.100279
   5 C :   -0.073663
   6 H :    0.109071
   7 C :   -0.085174
   8 H :    0.118474
   9 C :    0.002455
  10 H :    0.101227
  11 O :   -0.157273
  12 O :   -0.294770
  13 O :   -0.320766
  14 O :   -0.309865
  15 O :   -0.307164
  16 O :   -0.334024
  17 H :    0.102341
  18 H :    0.108041
  19 H :    0.280168
  20 H :    0.273454
  21 H :    0.291407
  22 H :    0.295306
  23 H :    0.285679

  Mayer bond orders larger than 0.100000
B(  0-C ,  1-C ) :   1.0341 B(  0-C , 16-O ) :   1.0877 B(  0-C , 17-H ) :   0.9024
B(  0-C , 18-H ) :   0.9232 B(  1-C ,  2-H ) :   0.8670 B(  1-C ,  3-C ) :   0.9714
B(  1-C , 11-O ) :   1.0392 B(  3-C ,  4-H ) :   0.8863 B(  3-C ,  5-C ) :   0.9725
B(  3-C , 15-O ) :   1.0322 B(  5-C ,  6-H ) :   0.8969 B(  5-C ,  7-C ) :   1.0327
B(  5-C , 14-O ) :   1.0574 B(  7-C ,  8-H ) :   0.8974 B(  7-C ,  9-C ) :   0.9339
B(  7-C , 13-O ) :   1.0826 B(  9-C , 10-H ) :   0.9013 B(  9-C , 11-O ) :   0.9929
B(  9-C , 12-O ) :   1.1431 B( 12-O , 19-H ) :   0.8335 B( 13-O , 20-H ) :   0.8077
B( 14-O , 21-H ) :   0.8420 B( 15-O , 22-H ) :   0.8380 B( 16-O , 23-H ) :   0.8412

Dispersion correction           -0.024885634
FINAL SINGLE POINT ENERGY      -685.691768033499

DIPOLE MOMENT
-------------

Method             : SCF
Type of density    : Electron Density
Multiplicity       :   1
Irrep              :   0
Energy             :  -685.8232307416302547 Eh
Relativity type    :
Basis              : AO
                                X                 Y                 Z
Electronic contribution:      2.345032068      -1.597744820      -0.085974184
Nuclear contribution   :     -3.253222998       3.080751682      -0.705537650
                        -----------------------------------------
Total Dipole Moment    :     -0.908190929       1.483006862      -0.791511834
                        -----------------------------------------
Magnitude (a.u.)       :      1.910657243
Magnitude (Debye)      :      4.856504760

Rotational constants in cm-1:             0.038064             0.027571             0.021913
Rotational constants in MHz :          1141.136482           826.548563           656.947257

                             ****ORCA TERMINATED NORMALLY****
TOTAL RUN TIME: 0 days 0 hours 0 minutes 12 seconds 39 msec
