                         Program Version 6.0.0  -   RELEASE  -
|  1> ! r2scan-3c def2/J RI DEFGRID2 scfconv6 printgap
|  2> %output
|  3>     printlevel normal
|  4> end
|  5> * xyz 0 1
|  6> C -4.7807379139 -0.8095943354 0.1367429575
|  7> N -3.4208959911 -0.8525363373 -0.3513018006
|  8> C -2.4560427479 -0.0491750213 0.1040191626
|  9> O -2.5894780521 0.8159905187 0.9496552932
| 10> O -1.2773537442 -0.3543830445 -0.5045026613
| 11> C -0.1497962871 0.4380885557 -0.2968966407
| 12> C -0.2046228838 1.8057826816 -0.3215424717
| 13> C 0.9692130809 2.5563456891 -0.1566086025
| 14> C 2.173552697 1.9368696122 0.0172523305
| 15> C 2.2610414949 0.5288992071 0.0368574727
| 16> C 1.0813897403 -0.2448153952 -0.120041643
| 17> C 1.1722465082 -1.6514830586 -0.0943513371
| 18> C 2.380213769 -2.2676118714 0.0800467164
| 19> C 3.5490930561 -1.506487502 0.2330532833
| 20> C 3.4903420004 -0.140974419 0.2119465084
| 21> H -5.0493842046 -1.7629986739 0.590076667
| 22> H -5.4656986422 -0.587759181 -0.6805120217
| 23> H -4.8417423289 -0.0225933834 0.8856707019
| 24> H -3.1805156499 -1.5297800091 -1.0591973756
| 25> H -1.1504582388 2.3072424045 -0.4545712459
| 26> H 0.9015259638 3.6327963039 -0.1734694885
| 27> H 3.0763394106 2.514980098 0.1425090483
| 28> H 0.2683176543 -2.2283753327 -0.2140982882
| 29> H 2.4410955744 -3.3449364378 0.1013941829
| 30> H 4.4943781413 -2.009406216 0.3686889803
| 31> H 4.38608828 0.4503106278 0.3293415791
| 32> *
| 33>
| 34>                          ****END OF INPUT****

CARTESIAN COORDINATES (ANGSTROEM)
---------------------------------
  C     -4.780738   -0.809594    0.136743
  N     -3.420896   -0.852536   -0.351302
  C     -2.456043   -0.049175    0.104019
  O     -2.589478    0.815991    0.949655
  O     -1.277354   -0.354383   -0.504503
  C     -0.149796    0.438089   -0.296897
  C     -0.204623    1.805783   -0.321542
  C      0.969213    2.556346   -0.156609
  C      2.173553    1.936870    0.017252
  C      2.261041    0.528899    0.036857
  C      1.081390   -0.244815   -0.120042
  C      1.172247   -1.651483   -0.094351
  C      2.380214   -2.267612    0.080047
  C      3.549093   -1.506488    0.233053
  C      3.490342   -0.140974    0.211947
  H     -5.049384   -1.762999    0.590077
  H     -5.465699   -0.587759   -0.680512
  H     -4.841742   -0.022593    0.885671
  H     -3.180516   -1.529780   -1.059197
  H     -1.150458    2.307242   -0.454571
  H      0.901526    3.632796   -0.173469
  H      3.076339    2.514980    0.142509
  H      0.268318   -2.228375   -0.214098
  H      2.441096   -3.344936    0.101394
  H      4.494378   -2.009406    0.368689
  H      4.386088    0.450311    0.329342

 Total Charge           Charge          ....    0
 Multiplicity           Mult            ....    1
 Number of Electrons    NEL             ....  106
 Basis Dimension        Dim             ....  355

ORBITAL ENERGIES
----------------

  NO   OCC          E(Eh)            E(eV)
   0   2.0000     -19.007170      -517.2114
   1   2.0000     -18.919085      -514.8145
   2   2.0000     -14.198781      -386.3685
   3   2.0000     -10.178084      -276.9597
   4   2.0000     -10.101861      -274.8856
   5   2.0000     -10.072965      -274.0993
   6   2.0000     -10.049016      -273.4476
   7   2.0000     -10.047711      -273.4121
   8   2.0000     -10.037637      -273.1380
   9   2.0000     -10.037588      -273.1367
  10   2.0000     -10.037370      -273.1307
  11   2.0000     -10.036792      -273.1150
  12   2.0000     -10.036444      -273.1055
  13   2.0000     -10.034942      -273.0647
  14   2.0000     -10.033764      -273.0326
  15   2.0000      -1.081953       -29.4414
  16   2.0000      -0.984277       -26.7835
  17   2.0000      -0.908241       -24.7145
  18   2.0000      -0.847336       -23.0572
  19   2.0000      -0.794876       -21.6297
  20   2.0000      -0.749637       -20.3987
  21   2.0000      -0.716216       -19.4892
  22   2.0000      -0.706747       -19.2316
  23   2.0000      -0.679297       -18.4846
  24   2.0000      -0.612923       -16.6785
  25   2.0000      -0.591911       -16.1067
  26   2.0000      -0.586728       -15.9657
  27   2.0000      -0.559653       -15.2289
  28   2.0000      -0.527932       -14.3658
  29   2.0000      -0.492455       -13.4004
  30   2.0000      -0.473899       -12.8954
  31   2.0000      -0.460771       -12.5382
  32   2.0000      -0.457370       -12.4457
  33   2.0000      -0.446311       -12.1447
  34   2.0000      -0.420914       -11.4537
  35   2.0000      -0.418244       -11.3810
  36   2.0000      -0.402546       -10.9538
  37   2.0000      -0.398444       -10.8422
  38   2.0000      -0.392603       -10.6833
  39   2.0000      -0.379792       -10.3347
  40   2.0000      -0.372805       -10.1445
  41   2.0000      -0.370402       -10.0792
  42   2.0000      -0.360180        -9.8010
  43   2.0000      -0.344090        -9.3632
  44   2.0000      -0.320830        -8.7302
  45   2.0000      -0.311149        -8.4668
  46   2.0000      -0.305782        -8.3207
  47   2.0000      -0.292256        -7.9527
  48   2.0000      -0.257250        -7.0001
  49   2.0000      -0.247116        -6.7244
  50   2.0000      -0.239397        -6.5143
  51   2.0000      -0.231938        -6.3113
  52   2.0000      -0.197933        -5.3860
  53   0.0000      -0.066746        -1.8163
  54   0.0000      -0.036878        -1.0035
  55   0.0000      -0.002247        -0.0612
  56   0.0000       0.026020         0.7080
  57   0.0000       0.053814         1.4644

MULLIKEN ATOMIC CHARGES
-----------------------
   0 C :   -0.390043
   1 N :   -0.158123
   2 C :    0.334627
   3 O :   -0.476426
   4 O :   -0.166111
   5 C :    0.304833
   6 C :   -0.220628
   7 C :   -0.155763
   8 C :   -0.269248
   9 C :    0.182825
  10 C :    0.014577
  11 C :   -0.275792
  12 C :   -0.146773
  13 C :   -0.143741
  14 C :   -0.223375
  15 H :    0.145740
  16 H :    0.145705
  17 H :    0.197486
  18 H :    0.249879
  19 H :    0.166134
  20 H :    0.146348
  21 H :    0.144002
  22 H :    0.160153
  23 H :    0.144697
  24 H :    0.145285
  25 H :    0.143732
Sum of atomic charges:    0.0000000

LOEWDIN ATOMIC CHARGES
----------------------
   0 C :   -0.106855
   1 N :   -0.603506
   2 C :    0.458912
   3 O :   -0.415906
   4 O :   -0.512353
   5 C :    0.225927
   6 C :   -0.114314
   7 C :   -0.152640
   8 C :   -0.152451
   9 C :   -0.053720
  10 C :   -0.019204
  11 C :   -0.129846
  12 C :   -0.163080
  13 C :   -0.163223
  14 C :   -0.141963
  15 H :    0.170163
  16 H :    0.170309
  17 H :    0.205768
  18 H :    0.278670
  19 H :    0.190806
  20 H :    0.170043
  21 H :    0.170594
  22 H :    0.181464
  23 H :    0.167622
  24 H :    0.167649
  25 H :    0.171134

  Mayer bond orders larger than 0.100000
B(  0-C ,  1-N ) :   0.8989 B(  0-C , 15-H ) :   0.9608 B(  0-C , 16-H ) :   0.9619
B(  0-C , 17-H ) :   0.9586 B(  1-N ,  2-C ) :   1.2712 B(  1-N , 18-H ) :   0.9087
B(  2-C ,  3-O ) :   1.8476 B(  2-C ,  4-O ) :   1.0541 B(  4-O ,  5-C ) :   0.8943
B(  5-C ,  6-C ) :   1.5107 B(  5-C , 10-C ) :   1.2916 B(  6-C ,  7-C ) :   1.2378
B(  6-C , 19-H ) :   0.9237 B(  7-C ,  8-C ) :   1.4972 B(  7-C , 20-H ) :   0.9585
B(  8-C ,  9-C ) :   1.1655 B(  8-C , 21-H ) :   0.9457 B(  9-C , 10-C ) :   1.4225
B(  9-C , 14-C ) :   1.1823 B( 10-C , 11-C ) :   1.2636 B( 11-C , 12-C ) :   1.4821
B( 11-C , 22-H ) :   0.9557 B( 12-C , 13-C ) :   1.2692 B( 12-C , 23-H ) :   0.9516
B( 13-C , 14-C ) :   1.5138 B( 13-C , 24-H ) :   0.9487 B( 14-C , 25-H ) :   0.9521

Dispersion correction           -0.010534966
FINAL SINGLE POINT ENERGY      -668.978338085010

DIPOLE MOMENT
-------------

Method             : SCF
Type of density    : Electron Density
Multiplicity       :   1
Irrep              :   0
Energy             :  -668.9827461094311047 Eh
Relativity type    :
Basis              : AO
                                X                 Y                 Z
Electronic contribution:      3.513060906       1.659742154      -0.505813573
Nuclear contribution   :     -3.941368532      -2.418814647      -0.149353423
                        -----------------------------------------
Total Dipole Moment    :     -0.428307626      -0.759072493      -0.655166996
                        -----------------------------------------
Magnitude (a.u.)       :      1.090358778
Magnitude (Debye)      :      2.771471761

Rotational constants in cm-1:             0.042002             0.012525             0.009968
Rotational constants in MHz :          1259.183772           375.495405           298.836520

                             ****ORCA TERMINATED NORMALLY****
TOTAL RUN TIME: 0 days 0 hours 0 minutes 43 seconds 80 msec
