                         Program Version 6.0.0  -   RELEASE  -
|  1> ! r2scan-3c def2/J RI DEFGRID2 scfconv6 printgap
|  2> %output
|  3>     printlevel normal
|  4> end
|  5> %cpcm
|  6>     smd true
|  7>     smdsolvent "water"
|  8> end
|  9> * xyz 0 1
| 10> C -4.7807379139 -0.8095943354 0.1367429575
| 11> N -3.4208959911 -0.8525363373 -0.3513018006
| 12> C -2.4560427479 -0.0491750213 0.1040191626
| 13> O -2.5894780521 0.8159905187 0.9496552932
| 14> O -1.2773537442 -0.3543830445 -0.5045026613
| 15> C -0.1497962871 0.4380885557 -0.2968966407
| 16> C -0.2046228838 1.8057826816 -0.3215424717
| 17> C 0.9692130809 2.5563456891 -0.1566086025
| 18> C 2.173552697 1.9368696122 0.0172523305
| 19> C 2.2610414949 0.5288992071 0.0368574727
| 20> C 1.0813897403 -0.2448153952 -0.120041643
| 21> C 1.1722465082 -1.6514830586 -0.0943513371
| 22> C 2.380213769 -2.2676118714 0.0800467164
| 23> C 3.5490930561 -1.506487502 0.2330532833
| 24> C 3.4903420004 -0.140974419 0.2119465084
| 25> H -5.0493842046 -1.7629986739 0.590076667
| 26> H -5.4656986422 -0.587759181 -0.6805120217
| 27> H -4.8417423289 -0.0225933834 0.8856707019
| 28> H -3.1805156499 -1.5297800091 -1.0591973756
| 29> H -1.1504582388 2.3072424045 -0.4545712459
| 30> H 0.9015259638 3.6327963039 -0.1734694885
| 31> H 3.0763394106 2.514980098 0.1425090483
| 32> H 0.2683176543 -2.2283753327 -0.2140982882
| 33> H 2.4410955744 -3.3449364378 0.1013941829
| 34> H 4.4943781413 -2.009406216 0.3686889803
| 35> H 4.38608828 0.4503106278 0.3293415791
| 36> *
| 37>
| 38>                          ****END OF INPUT****

CARTESIAN COORDINATES (ANGSTROEM)
---------------------------------
  C     -4.780738   -0.809594    0.136743
  N     -3.420896   -0.852536   -0.351302
  C     -2.456043   -0.049175    0.104019
  O     -2.589478    0.815991    0.949655
  O     -1.277354   -0.354383   -0.504503
  C     -0.149796    0.438089   -0.296897
  C     -0.204623    1.805783   -0.321542
  C      0.969213    2.556346   -0.156609
  C      2.173553    1.936870    0.017252
  C      2.261041    0.528899    0.036857
  C      1.081390   -0.244815   -0.120042
  C      1.172247   -1.651483   -0.094351
  C      2.380214   -2.267612    0.080047
  C      3.549093   -1.506488    0.233053
  C      3.490342   -0.140974    0.211947
  H     -5.049384   -1.762999    0.590077
  H     -5.465699   -0.587759   -0.680512
  H     -4.841742   -0.022593    0.885671
  H     -3.180516   -1.529780   -1.059197
  H     -1.150458    2.307242   -0.454571
  H      0.901526    3.632796   -0.173469
  H      3.076339    2.514980    0.142509
  H      0.268318   -2.228375   -0.214098
  H      2.441096   -3.344936    0.101394
  H      4.494378   -2.009406    0.368689
  H      4.386088    0.450311    0.329342

 Total Charge           Charge          ....    0
 Multiplicity           Mult            ....    1
 Number of Electrons    NEL             ....  106
 Basis Dimension        Dim             ....  355

ORBITAL ENERGIES
----------------

  NO   OCC          E(Eh)            E(eV)
   0   2.0000     -19.013664      -517.3881
   1   2.0000     -18.934649      -515.2380
   2   2.0000     -14.192297      -386.1920
   3   2.0000     -10.186728      -277.1950
   4   2.0000     -10.107990      -275.0524
   5   2.0000     -10.056680      -273.6562
   6   2.0000     -10.054133      -273.5869
   7   2.0000     -10.051790      -273.5231
   8   2.0000     -10.039823      -273.1975
   9   2.0000     -10.039412      -273.1863
  10   2.0000     -10.038992      -273.1749
  11   2.0000     -10.037955      -273.1467
  12   2.0000     -10.037100      -273.1234
  13   2.0000     -10.036469      -273.1062
  14   2.0000     -10.035645      -273.0838
  15   2.0000      -1.089550       -29.6482
  16   2.0000      -0.997357       -27.1395
  17   2.0000      -0.904087       -24.6015
  18   2.0000      -0.851895       -23.1812
  19   2.0000      -0.798545       -21.7295
  20   2.0000      -0.752520       -20.4771
  21   2.0000      -0.719627       -19.5820
  22   2.0000      -0.705012       -19.1843
  23   2.0000      -0.675579       -18.3834
  24   2.0000      -0.613028       -16.6813
  25   2.0000      -0.593721       -16.1560
  26   2.0000      -0.587255       -15.9800
  27   2.0000      -0.553813       -15.0700
  28   2.0000      -0.529034       -14.3958
  29   2.0000      -0.494098       -13.4451
  30   2.0000      -0.476239       -12.9591
  31   2.0000      -0.463840       -12.6217
  32   2.0000      -0.456599       -12.4247
  33   2.0000      -0.446815       -12.1584
  34   2.0000      -0.421957       -11.4820
  35   2.0000      -0.416812       -11.3420
  36   2.0000      -0.402842       -10.9619
  37   2.0000      -0.398947       -10.8559
  38   2.0000      -0.395184       -10.7535
  39   2.0000      -0.380015       -10.3407
  40   2.0000      -0.373510       -10.1637
  41   2.0000      -0.367252        -9.9934
  42   2.0000      -0.358583        -9.7575
  43   2.0000      -0.345031        -9.3888
  44   2.0000      -0.325823        -8.8661
  45   2.0000      -0.313364        -8.5271
  46   2.0000      -0.307649        -8.3716
  47   2.0000      -0.299082        -8.1384
  48   2.0000      -0.265718        -7.2305
  49   2.0000      -0.263258        -7.1636
  50   2.0000      -0.239428        -6.5152
  51   2.0000      -0.237625        -6.4661
  52   2.0000      -0.203706        -5.5431
  53   0.0000      -0.071883        -1.9560
  54   0.0000      -0.042537        -1.1575
  55   0.0000      -0.007782        -0.2118
  56   0.0000       0.019177         0.5218
  57   0.0000       0.061439         1.6718

MULLIKEN ATOMIC CHARGES
-----------------------
   0 C :   -0.405301
   1 N :   -0.181475
   2 C :    0.360653
   3 O :   -0.560499
   4 O :   -0.162267
   5 C :    0.298857
   6 C :   -0.256607
   7 C :   -0.189031
   8 C :   -0.279194
   9 C :    0.124953
  10 C :    0.013232
  11 C :   -0.290317
  12 C :   -0.182504
  13 C :   -0.170117
  14 C :   -0.236208
  15 H :    0.171169
  16 H :    0.171390
  17 H :    0.186793
  18 H :    0.306426
  19 H :    0.191709
  20 H :    0.181256
  21 H :    0.180240
  22 H :    0.187418
  23 H :    0.179276
  24 H :    0.179747
  25 H :    0.180402
Sum of atomic charges:    0.0000000

LOEWDIN ATOMIC CHARGES
----------------------
   0 C :   -0.103224
   1 N :   -0.575951
   2 C :    0.461417
   3 O :   -0.485667
   4 O :   -0.510618
   5 C :    0.214524
   6 C :   -0.128960
   7 C :   -0.159894
   8 C :   -0.155637
   9 C :   -0.066054
  10 C :   -0.031055
  11 C :   -0.138685
  12 C :   -0.165717
  13 C :   -0.167146
  14 C :   -0.146456
  15 H :    0.181489
  16 H :    0.181948
  17 H :    0.200045
  18 H :    0.295641
  19 H :    0.197868
  20 H :    0.182423
  21 H :    0.184042
  22 H :    0.191257
  23 H :    0.180170
  24 H :    0.179824
  25 H :    0.184415

  Mayer bond orders larger than 0.100000
B(  0-C ,  1-N ) :   0.8890 B(  0-C , 15-H ) :   0.9534 B(  0-C , 16-H ) :   0.9537
B(  0-C , 17-H ) :   0.9595 B(  1-N ,  2-C ) :   1.3265 B(  1-N , 18-H ) :   0.8868
B(  2-C ,  3-O ) :   1.7725 B(  2-C ,  4-O ) :   1.0587 B(  4-O ,  5-C ) :   0.8686
B(  5-C ,  6-C ) :   1.4583 B(  5-C , 10-C ) :   1.2652 B(  5-C , 11-C ) :  -0.1024
B(  6-C ,  7-C ) :   1.2037 B(  6-C , 19-H ) :   0.9488 B(  7-C ,  8-C ) :   1.4643
B(  7-C , 20-H ) :   0.9713 B(  8-C ,  9-C ) :   1.1662 B(  8-C , 21-H ) :   0.9588
B(  9-C , 10-C ) :   1.3451 B(  9-C , 14-C ) :   1.1875 B( 10-C , 11-C ) :   1.2312
B( 11-C , 12-C ) :   1.4568 B( 11-C , 22-H ) :   0.9707 B( 12-C , 13-C ) :   1.2355
B( 12-C , 23-H ) :   0.9627 B( 13-C , 14-C ) :   1.4762 B( 13-C , 24-H ) :   0.9591
B( 14-C , 25-H ) :   0.9586

Dispersion correction           -0.010534966
FINAL SINGLE POINT ENERGY      -668.991347227533

DIPOLE MOMENT
-------------

Method             : SCF
Type of density    : Electron Density
Multiplicity       :   1
Irrep              :   0
Energy             :  -668.9957552519537103 Eh
Relativity type    :
Basis              : AO
                                X                 Y                 Z
Electronic contribution:      3.537027363       1.240878465      -0.865416774
Nuclear contribution   :     -3.941368532      -2.418814647      -0.149353423
                        -----------------------------------------
Total Dipole Moment    :     -0.404341168      -1.177936182      -1.014770197
                        -----------------------------------------
Magnitude (a.u.)       :      1.606481865
Magnitude (Debye)      :      4.083352391

Rotational constants in cm-1:             0.042002             0.012525             0.009968
Rotational constants in MHz :          1259.183772           375.495405           298.836520

                             ****ORCA TERMINATED NORMALLY****
TOTAL RUN TIME: 0 days 0 hours 0 minutes 54 seconds 846 msec
