                         Program Version 6.0.0  -   RELEASE  -
|  1> ! pbe def2-sv(p) def2/J RI DEFGRID1 loosescf d4 GCP(DFT/SV(P)) printgap
|  2> %output
|  3>     printlevel normal
|  4> end
|  5> * xyz 0 1
|  6> C -0.6258429551 0.9660492655 0.0019172289
|  7> C 0.4201715115 0.1467656408 0.0004066252
|  8> Cl 2.0262870597 0.7535867177 -0.0004174236
|  9> Cl 0.2939524803 -1.5694076791 0.0001245648
| 10> Cl -2.2357504048 0.3808678281 -0.0005249907
| 11> H -0.5209856285 2.0384534898 0.0010754297
| 12> *
| 13>
| 14>                          ****END OF INPUT****

CARTESIAN COORDINATES (ANGSTROEM)
---------------------------------
  C     -0.625843    0.966049    0.001917
  C      0.420172    0.146766    0.000407
  Cl     2.026287    0.753587   -0.000417
  Cl     0.293952   -1.569408    0.000125
  Cl    -2.235750    0.380868   -0.000525
  H     -0.520986    2.038453    0.001075

 Total Charge           Charge          ....    0
 Multiplicity           Mult            ....    1
 Number of Electrons    NEL             ....   64
 Basis Dimension        Dim             ....   84

ORBITAL ENERGIES
----------------

  NO   OCC          E(Eh)            E(eV)
   0   2.0000    -100.665858     -2739.2572
   1   2.0000    -100.663942     -2739.2051
   2   2.0000    -100.656475     -2739.0019
   3   2.0000     -10.006457      -272.2895
   4   2.0000      -9.961892      -271.0769
   5   2.0000      -9.201978      -250.3986
   6   2.0000      -9.199880      -250.3415
   7   2.0000      -9.192424      -250.1386
   8   2.0000      -7.033726      -191.3974
   9   2.0000      -7.031644      -191.3408
  10   2.0000      -7.024038      -191.1338
  11   2.0000      -7.021580      -191.0669
  12   2.0000      -7.021318      -191.0598
  13   2.0000      -7.019770      -191.0177
  14   2.0000      -7.018974      -190.9960
  15   2.0000      -7.012461      -190.8188
  16   2.0000      -7.011481      -190.7921
  17   2.0000      -0.859908       -23.3993
  18   2.0000      -0.803468       -21.8635
  19   2.0000      -0.773336       -21.0435
  20   2.0000      -0.661110       -17.9897
  21   2.0000      -0.519399       -14.1336
  22   2.0000      -0.465016       -12.6537
  23   2.0000      -0.445152       -12.1132
  24   2.0000      -0.386366       -10.5135
  25   2.0000      -0.384641       -10.4666
  26   2.0000      -0.317526        -8.6403
  27   2.0000      -0.309093        -8.4108
  28   2.0000      -0.295042        -8.0285
  29   2.0000      -0.288918        -7.8619
  30   2.0000      -0.271131        -7.3778
  31   2.0000      -0.218902        -5.9566
  32   0.0000      -0.051701        -1.4069
  33   0.0000      -0.019893        -0.5413
  34   0.0000      -0.012211        -0.3323
  35   0.0000       0.043978         1.1967
  36   0.0000       0.135636         3.6908

MULLIKEN ATOMIC CHARGES
-----------------------
   0 C :   -0.050155
   1 C :    0.003488
   2 Cl:   -0.025303
   3 Cl:   -0.011194
   4 Cl:   -0.045384
   5 H :    0.128548
Sum of atomic charges:   -0.0000000

LOEWDIN ATOMIC CHARGES
----------------------
   0 C :   -0.302268
   1 C :   -0.303170
   2 Cl:    0.157563
   3 Cl:    0.157506
   4 Cl:    0.148729
   5 H :    0.141641

  Mayer bond orders larger than 0.100000
B(  0-C ,  1-C ) :   1.7767 B(  0-C ,  4-Cl) :   1.1053 B(  0-C ,  5-H ) :   0.9095
B(  1-C ,  2-Cl) :   1.0574 B(  1-C ,  3-Cl) :   1.1145

Dispersion correction           -0.007462517
FINAL SINGLE POINT ENERGY     -1456.217097474434

DIPOLE MOMENT
-------------

Method             : SCF
Type of density    : Electron Density
Multiplicity       :   1
Irrep              :   0
Energy             : -1456.2262448753826902 Eh
Relativity type    :
Basis              : AO
                                X                 Y                 Z
Electronic contribution:      0.654362339      -2.195407453      -0.002379360
Nuclear contribution   :     -0.602180255       2.496235434       0.002106681
                        -----------------------------------------
Total Dipole Moment    :      0.052182085       0.300827981      -0.000272679
                        -----------------------------------------
Magnitude (a.u.)       :      0.305320354
Magnitude (Debye)      :      0.776062664

Rotational constants in cm-1:             0.131438             0.050633             0.036552
Rotational constants in MHz :          3940.423969          1517.925083          1095.802042

                             ****ORCA TERMINATED NORMALLY****
TOTAL RUN TIME: 0 days 0 hours 0 minutes 4 seconds 124 msec
