                         Program Version 6.0.0  -   RELEASE  -
|  1> ! pbe def2-sv(p) def2/J RI DEFGRID1 loosescf d4 GCP(DFT/SV(P)) printgap
|  2> %output
|  3>     printlevel normal
|  4> end
|  5> * xyz 0 1
|  6> C -2.5088707594 -1.0322304423 0.3479324606
|  7> C -1.0640625768 -0.5433341319 0.5805496578
|  8> H -0.8902788557 -0.4598819219 1.6647782579
|  9> C -0.7953838766 0.8200685447 -0.0679439061
| 10> H -0.9206364146 0.7055629754 -1.1579534832
| 11> C 0.6559770583 1.2451021097 0.2121256297
| 12> H 0.7973171235 1.3769115403 1.2914541429
| 13> C 1.6060455403 0.1508335802 -0.2803006415
| 14> H 1.5324487541 0.0671212731 -1.3769359886
| 15> C 1.1789931731 -1.2086189014 0.3091759652
| 16> H 1.3350359844 -1.173923526 1.4098103023
| 17> O -0.1707033781 -1.5015872419 0.0439931871
| 18> O 1.963440484 -2.1837219426 -0.275622644
| 19> O 2.9147050639 0.4714693573 0.1073030673
| 20> O 0.9118066835 2.5071552892 -0.3487826553
| 21> O -1.7114829861 1.7603262848 0.4315013462
| 22> O -3.07325166 -0.6136541681 -0.8650439611
| 23> H -3.1234328433 -0.7023455852 1.1910832235
| 24> H -2.4874157114 -2.1231393087 0.3157724394
| 25> H 1.5711438512 -3.0563080858 -0.1172589189
| 26> H 3.5064889632 -0.2488492405 -0.15808619
| 27> H 1.092587978 2.4226766715 -1.296249239
| 28> H -1.3366377435 2.6465655475 0.3007587271
| 29> H -3.2731772907 0.3321595132 -0.801873493
| 30> *
| 31>
| 32>                          ****END OF INPUT****

CARTESIAN COORDINATES (ANGSTROEM)
---------------------------------
  C     -2.508871   -1.032230    0.347932
  C     -1.064063   -0.543334    0.580550
  H     -0.890279   -0.459882    1.664778
  C     -0.795384    0.820069   -0.067944
  H     -0.920636    0.705563   -1.157953
  C      0.655977    1.245102    0.212126
  H      0.797317    1.376912    1.291454
  C      1.606046    0.150834   -0.280301
  H      1.532449    0.067121   -1.376936
  C      1.178993   -1.208619    0.309176
  H      1.335036   -1.173924    1.409810
  O     -0.170703   -1.501587    0.043993
  O      1.963440   -2.183722   -0.275623
  O      2.914705    0.471469    0.107303
  O      0.911807    2.507155   -0.348783
  O     -1.711483    1.760326    0.431501
  O     -3.073252   -0.613654   -0.865044
  H     -3.123433   -0.702346    1.191083
  H     -2.487416   -2.123139    0.315772
  H      1.571144   -3.056308   -0.117259
  H      3.506489   -0.248849   -0.158086
  H      1.092588    2.422677   -1.296249
  H     -1.336638    2.646566    0.300759
  H     -3.273177    0.332160   -0.801873

 Total Charge           Charge          ....    0
 Multiplicity           Mult            ....    1
 Number of Electrons    NEL             ....   96
 Basis Dimension        Dim             ....  192

ORBITAL ENERGIES
----------------

  NO   OCC          E(Eh)            E(eV)
   0   2.0000     -18.775221      -510.8997
   1   2.0000     -18.771423      -510.7964
   2   2.0000     -18.764060      -510.5960
   3   2.0000     -18.761362      -510.5226
   4   2.0000     -18.754956      -510.3483
   5   2.0000     -18.744261      -510.0573
   6   2.0000      -9.991717      -271.8884
   7   2.0000      -9.948513      -270.7128
   8   2.0000      -9.947731      -270.6915
   9   2.0000      -9.946044      -270.6456
  10   2.0000      -9.943905      -270.5874
  11   2.0000      -9.930628      -270.2261
  12   2.0000      -0.991077       -26.9686
  13   2.0000      -0.953831       -25.9551
  14   2.0000      -0.939268       -25.5588
  15   2.0000      -0.923786       -25.1375
  16   2.0000      -0.923478       -25.1291
  17   2.0000      -0.915940       -24.9240
  18   2.0000      -0.707935       -19.2639
  19   2.0000      -0.692781       -18.8515
  20   2.0000      -0.618870       -16.8403
  21   2.0000      -0.591321       -16.0907
  22   2.0000      -0.563065       -15.3218
  23   2.0000      -0.536206       -14.5909
  24   2.0000      -0.512559       -13.9474
  25   2.0000      -0.496783       -13.5181
  26   2.0000      -0.476714       -12.9720
  27   2.0000      -0.453355       -12.3364
  28   2.0000      -0.442710       -12.0468
  29   2.0000      -0.434741       -11.8299
  30   2.0000      -0.428193       -11.6517
  31   2.0000      -0.418027       -11.3751
  32   2.0000      -0.388309       -10.5664
  33   2.0000      -0.373931       -10.1752
  34   2.0000      -0.361391        -9.8339
  35   2.0000      -0.353502        -9.6193
  36   2.0000      -0.327502        -8.9118
  37   2.0000      -0.323486        -8.8025
  38   2.0000      -0.307481        -8.3670
  39   2.0000      -0.303020        -8.2456
  40   2.0000      -0.283449        -7.7130
  41   2.0000      -0.273789        -7.4502
  42   2.0000      -0.257818        -7.0156
  43   2.0000      -0.246047        -6.6953
  44   2.0000      -0.239216        -6.5094
  45   2.0000      -0.220696        -6.0054
  46   2.0000      -0.217212        -5.9106
  47   2.0000      -0.211223        -5.7477
  48   0.0000       0.009595         0.2611
  49   0.0000       0.022432         0.6104
  50   0.0000       0.033697         0.9169
  51   0.0000       0.053389         1.4528
  52   0.0000       0.054872         1.4932

MULLIKEN ATOMIC CHARGES
-----------------------
   0 C :    0.087667
   1 C :    0.025434
   2 H :    0.050450
   3 C :    0.024246
   4 H :    0.048564
   5 C :    0.069304
   6 H :    0.069483
   7 C :    0.030215
   8 H :    0.047739
   9 C :    0.172337
  10 H :    0.039449
  11 O :   -0.308354
  12 O :   -0.390743
  13 O :   -0.405856
  14 O :   -0.410919
  15 O :   -0.426433
  16 O :   -0.434758
  17 H :    0.080662
  18 H :    0.088223
  19 H :    0.313376
  20 H :    0.308946
  21 H :    0.304156
  22 H :    0.309043
  23 H :    0.307769
Sum of atomic charges:    0.0000000

LOEWDIN ATOMIC CHARGES
----------------------
   0 C :   -0.121613
   1 C :   -0.066361
   2 H :    0.104171
   3 C :   -0.088037
   4 H :    0.097588
   5 C :   -0.075565
   6 H :    0.120208
   7 C :   -0.088990
   8 H :    0.101457
   9 C :   -0.004256
  10 H :    0.081047
  11 O :   -0.149722
  12 O :   -0.302888
  13 O :   -0.314026
  14 O :   -0.305705
  15 O :   -0.324600
  16 O :   -0.331132
  17 H :    0.105462
  18 H :    0.119763
  19 H :    0.294775
  20 H :    0.289808
  21 H :    0.289166
  22 H :    0.286308
  23 H :    0.283143

  Mayer bond orders larger than 0.100000
B(  0-C ,  1-C ) :   0.9964 B(  0-C , 16-O ) :   1.1148 B(  0-C , 17-H ) :   0.9211
B(  0-C , 18-H ) :   0.9189 B(  1-C ,  2-H ) :   0.8701 B(  1-C ,  3-C ) :   1.0204
B(  1-C , 11-O ) :   0.9828 B(  3-C ,  4-H ) :   0.8555 B(  3-C ,  5-C ) :   1.0071
B(  3-C , 15-O ) :   1.0690 B(  5-C ,  6-H ) :   0.8684 B(  5-C ,  7-C ) :   1.0154
B(  5-C , 14-O ) :   1.0504 B(  7-C ,  8-H ) :   0.8590 B(  7-C ,  9-C ) :   0.9937
B(  7-C , 13-O ) :   1.0944 B(  9-C , 10-H ) :   0.8825 B(  9-C , 11-O ) :   1.0237
B(  9-C , 12-O ) :   1.1584 B( 12-O , 19-H ) :   0.8356 B( 13-O , 20-H ) :   0.8389
B( 14-O , 21-H ) :   0.8454 B( 15-O , 22-H ) :   0.8249 B( 16-O , 23-H ) :   0.8337

Dispersion correction           -0.023964965
FINAL SINGLE POINT ENERGY      -685.699584330399

DIPOLE MOMENT
-------------

Method             : SCF
Type of density    : Electron Density
Multiplicity       :   1
Irrep              :   0
Energy             :  -685.8299943340911113 Eh
Relativity type    :
Basis              : AO
                                X                 Y                 Z
Electronic contribution:      2.298604333       0.025205310      -1.176242996
Nuclear contribution   :     -2.048380490      -0.193734358       1.173634861
                        -----------------------------------------
Total Dipole Moment    :      0.250223843      -0.168529047      -0.002608135
                        -----------------------------------------
Magnitude (a.u.)       :      0.301696559
Magnitude (Debye)      :      0.766851709

Rotational constants in cm-1:             0.041641             0.025916             0.017294
Rotational constants in MHz :          1248.363929           776.953920           518.455911

                             ****ORCA TERMINATED NORMALLY****
TOTAL RUN TIME: 0 days 0 hours 0 minutes 11 seconds 975 msec
