                         Program Version 6.0.0  -   RELEASE  -
|  1> ! pbe def2-sv(p) def2/J RI DEFGRID1 loosescf d4 GCP(DFT/SV(P)) printgap
|  2> %output
|  3>     printlevel normal
|  4> end
|  5> * xyz 0 1
|  6> C -1.7945016022 -0.0001257028 0.1539403225
|  7> C -0.9452520573 -1.2520048125 0.3531206214
|  8> C 0.2350746209 -1.2614296861 -0.6164753791
|  9> C 1.0993816655 9.80987e-05 -0.4874187697
| 10> C 0.2348761141 1.2615329576 -0.6163904243
| 11> C -0.9454003729 1.2518542346 0.353240557
| 12> O 1.8736622737 0.0001632632 0.6984665443
| 13> H -2.6290542663 -0.0002300412 0.8574740456
| 14> H -2.2062371913 -8.18018e-05 -0.8575265734
| 15> H -0.5826949188 -1.2880273738 1.3831107583
| 16> H -1.5511355961 -2.1449632571 0.1895869456
| 17> H 0.8628595492 -2.1363781243 -0.4364675763
| 18> H -0.1370345584 -1.3148047997 -1.6407250306
| 19> H 1.8511621859 0.0002038917 -1.2864786827
| 20> H 0.8625169057 2.1365373257 -0.4362141193
| 21> H -0.1371673372 1.3149485723 -1.6406548584
| 22> H -0.5826598333 1.2877796866 1.3831638644
| 23> H -1.55143757 2.1447539875 0.1899113043
| 24> H 1.2723197177 -0.0014370072 1.4556603346
| 25> *
| 26>
| 27>                          ****END OF INPUT****

CARTESIAN COORDINATES (ANGSTROEM)
---------------------------------
  C     -1.794502   -0.000126    0.153940
  C     -0.945252   -1.252005    0.353121
  C      0.235075   -1.261430   -0.616475
  C      1.099382    0.000098   -0.487419
  C      0.234876    1.261533   -0.616390
  C     -0.945400    1.251854    0.353241
  O      1.873662    0.000163    0.698467
  H     -2.629054   -0.000230    0.857474
  H     -2.206237   -0.000082   -0.857527
  H     -0.582695   -1.288027    1.383111
  H     -1.551136   -2.144963    0.189587
  H      0.862860   -2.136378   -0.436468
  H     -0.137035   -1.314805   -1.640725
  H      1.851162    0.000204   -1.286479
  H      0.862517    2.136537   -0.436214
  H     -0.137167    1.314949   -1.640655
  H     -0.582660    1.287780    1.383164
  H     -1.551438    2.144754    0.189911
  H      1.272320   -0.001437    1.455660

 Total Charge           Charge          ....    0
 Multiplicity           Mult            ....    1
 Number of Electrons    NEL             ....   56
 Basis Dimension        Dim             ....  122

ORBITAL ENERGIES
----------------

  NO   OCC          E(Eh)            E(eV)
   0   2.0000     -18.739691      -509.9329
   1   2.0000      -9.931154      -270.2405
   2   2.0000      -9.887904      -269.0635
   3   2.0000      -9.887868      -269.0626
   4   2.0000      -9.885910      -269.0093
   5   2.0000      -9.880541      -268.8632
   6   2.0000      -9.880502      -268.8621
   7   2.0000      -0.917058       -24.9544
   8   2.0000      -0.747565       -20.3423
   9   2.0000      -0.670015       -18.2320
  10   2.0000      -0.658631       -17.9223
  11   2.0000      -0.551202       -14.9990
  12   2.0000      -0.545903       -14.8548
  13   2.0000      -0.497468       -13.5368
  14   2.0000      -0.453222       -12.3328
  15   2.0000      -0.419142       -11.4054
  16   2.0000      -0.403527       -10.9805
  17   2.0000      -0.396556       -10.7908
  18   2.0000      -0.367317        -9.9952
  19   2.0000      -0.348361        -9.4794
  20   2.0000      -0.336689        -9.1618
  21   2.0000      -0.335993        -9.1428
  22   2.0000      -0.311345        -8.4721
  23   2.0000      -0.289793        -7.8857
  24   2.0000      -0.289088        -7.8665
  25   2.0000      -0.271482        -7.3874
  26   2.0000      -0.253658        -6.9024
  27   2.0000      -0.209139        -5.6910
  28   0.0000       0.017039         0.4637
  29   0.0000       0.037038         1.0078
  30   0.0000       0.073041         1.9875
  31   0.0000       0.073076         1.9885
  32   0.0000       0.080075         2.1789

MULLIKEN ATOMIC CHARGES
-----------------------
   0 C :   -0.143498
   1 C :   -0.181359
   2 C :   -0.130611
   3 C :    0.033086
   4 C :   -0.130405
   5 C :   -0.181322
   6 O :   -0.433124
   7 H :    0.086692
   8 H :    0.076057
   9 H :    0.066713
  10 H :    0.091375
  11 H :    0.090420
  12 H :    0.073974
  13 H :    0.066961
  14 H :    0.090397
  15 H :    0.073933
  16 H :    0.066711
  17 H :    0.091361
  18 H :    0.292639
Sum of atomic charges:   -0.0000000

LOEWDIN ATOMIC CHARGES
----------------------
   0 C :   -0.226949
   1 C :   -0.231653
   2 C :   -0.239629
   3 C :   -0.052682
   4 C :   -0.239623
   5 C :   -0.231649
   6 O :   -0.326437
   7 H :    0.116450
   8 H :    0.115645
   9 H :    0.106970
  10 H :    0.120251
  11 H :    0.119963
  12 H :    0.118604
  13 H :    0.111363
  14 H :    0.119972
  15 H :    0.118576
  16 H :    0.106986
  17 H :    0.120240
  18 H :    0.273601

  Mayer bond orders larger than 0.100000
B(  0-C ,  1-C ) :   1.1309 B(  0-C ,  5-C ) :   1.1309 B(  0-C ,  7-H ) :   0.9193
B(  0-C ,  8-H ) :   0.9135 B(  1-C ,  2-C ) :   1.1155 B(  1-C ,  9-H ) :   0.9129
B(  1-C , 10-H ) :   0.9198 B(  2-C ,  3-C ) :   1.0754 B(  2-C , 11-H ) :   0.9123
B(  2-C , 12-H ) :   0.9048 B(  3-C ,  4-C ) :   1.0752 B(  3-C ,  6-O ) :   1.0358
B(  3-C , 13-H ) :   0.9037 B(  4-C ,  5-C ) :   1.1156 B(  4-C , 14-H ) :   0.9122
B(  4-C , 15-H ) :   0.9048 B(  5-C , 16-H ) :   0.9129 B(  5-C , 17-H ) :   0.9198
B(  6-O , 18-H ) :   0.8482

Dispersion correction           -0.016669039
FINAL SINGLE POINT ENERGY      -310.345362581545

DIPOLE MOMENT
-------------

Method             : SCF
Type of density    : Electron Density
Multiplicity       :   1
Irrep              :   0
Energy             :  -310.4186238823445478 Eh
Relativity type    :
Basis              : AO
                                X                 Y                 Z
Electronic contribution:      3.566174505       0.000556289       0.771299063
Nuclear contribution   :     -4.220745457      -0.001591466      -0.776909016
                        -----------------------------------------
Total Dipole Moment    :     -0.654570951      -0.001035177      -0.005609953
                        -----------------------------------------
Magnitude (a.u.)       :      0.654595809
Magnitude (Debye)      :      1.663850319

Rotational constants in cm-1:             0.121139             0.086768             0.065469
Rotational constants in MHz :          3631.660800          2601.252881          1962.714123

                             ****ORCA TERMINATED NORMALLY****
TOTAL RUN TIME: 0 days 0 hours 0 minutes 32 seconds 656 msec
