                         Program Version 6.0.0  -   RELEASE  -
|  1> ! r2scan-3c def2/J RI DEFGRID2 scfconv6 printgap
|  2> %output
|  3>     printlevel normal
|  4> end
|  5> * xyz 0 1
|  6> C -1.9581315255 -0.1074328709 -0.0286166279
|  7> C -0.5770195771 0.5309770227 0.0256657765
|  8> C 0.5329699424 -0.5144797072 -0.0251946004
|  9> O 1.7824649995 0.1485207823 0.0294006442
| 10> H -2.7265235001 0.6593859418 0.009793446
| 11> H -2.0804298195 -0.6740979991 -0.9486077898
| 12> H -2.0998902721 -0.7816879653 0.8126253297
| 13> H -0.462213605 1.1084486826 0.944491016
| 14> H -0.4423914838 1.2153491685 -0.8136549066
| 15> H 0.4308909388 -1.2027447167 0.8252410246
| 16> H 0.4510653258 -1.0946276368 -0.9547151745
| 17> H 2.494003381 -0.5039507466 -0.0064755272
| 18> *
| 19>
| 20>                          ****END OF INPUT****

CARTESIAN COORDINATES (ANGSTROEM)
---------------------------------
  C     -1.958132   -0.107433   -0.028617
  C     -0.577020    0.530977    0.025666
  C      0.532970   -0.514480   -0.025195
  O      1.782465    0.148521    0.029401
  H     -2.726524    0.659386    0.009793
  H     -2.080430   -0.674098   -0.948608
  H     -2.099890   -0.781688    0.812625
  H     -0.462214    1.108449    0.944491
  H     -0.442391    1.215349   -0.813655
  H      0.430891   -1.202745    0.825241
  H      0.451065   -1.094628   -0.954715
  H      2.494003   -0.503951   -0.006476

 Total Charge           Charge          ....    0
 Multiplicity           Mult            ....    1
 Number of Electrons    NEL             ....   34
 Basis Dimension        Dim             ....  121

ORBITAL ENERGIES
----------------

  NO   OCC          E(Eh)            E(eV)
   0   2.0000     -18.944963      -515.5187
   1   2.0000     -10.072880      -274.0970
   2   2.0000     -10.023925      -272.7649
   3   2.0000     -10.020117      -272.6612
   4   2.0000      -0.980903       -26.6917
   5   2.0000      -0.745843       -20.2954
   6   2.0000      -0.639723       -17.4078
   7   2.0000      -0.551837       -15.0162
   8   2.0000      -0.477299       -12.9880
   9   2.0000      -0.443171       -12.0593
  10   2.0000      -0.400141       -10.8884
  11   2.0000      -0.375496       -10.2178
  12   2.0000      -0.335191        -9.1210
  13   2.0000      -0.331232        -9.0133
  14   2.0000      -0.305637        -8.3168
  15   2.0000      -0.288492        -7.8503
  16   2.0000      -0.234166        -6.3720
  17   0.0000       0.060873         1.6564
  18   0.0000       0.100390         2.7317
  19   0.0000       0.134734         3.6663
  20   0.0000       0.143887         3.9154
  21   0.0000       0.147934         4.0255

MULLIKEN ATOMIC CHARGES
-----------------------
   0 C :   -0.464324
   1 C :   -0.217039
   2 C :   -0.125403
   3 O :   -0.427228
   4 H :    0.147796
   5 H :    0.139956
   6 H :    0.139975
   7 H :    0.142526
   8 H :    0.142543
   9 H :    0.115971
  10 H :    0.115861
  11 H :    0.289366
Sum of atomic charges:   -0.0000000

LOEWDIN ATOMIC CHARGES
----------------------
   0 C :   -0.422918
   1 C :   -0.289918
   2 C :    0.003913
   3 O :   -0.630806
   4 H :    0.153078
   5 H :    0.150101
   6 H :    0.150110
   7 H :    0.158313
   8 H :    0.158305
   9 H :    0.152290
  10 H :    0.152289
  11 H :    0.265242

  Mayer bond orders larger than 0.100000
B(  0-C ,  1-C ) :   0.8988 B(  0-C ,  4-H ) :   0.9692 B(  0-C ,  5-H ) :   0.9784
B(  0-C ,  6-H ) :   0.9784 B(  1-C ,  2-C ) :   0.9516 B(  1-C ,  7-H ) :   0.9643
B(  1-C ,  8-H ) :   0.9643 B(  2-C ,  3-O ) :   0.9240 B(  2-C ,  9-H ) :   0.9656
B(  2-C , 10-H ) :   0.9657 B(  3-O , 11-H ) :   0.9024

Dispersion correction           -0.002051240
FINAL SINGLE POINT ENERGY      -194.298623556102

DIPOLE MOMENT
-------------

Method             : SCF
Type of density    : Electron Density
Multiplicity       :   1
Irrep              :   0
Energy             :  -194.3034927811877139 Eh
Relativity type    :
Basis              : AO
                                X                 Y                 Z
Electronic contribution:      4.043244728       0.641839794       0.085516954
Nuclear contribution   :     -4.134720428      -1.192950152      -0.122746777
                        -----------------------------------------
Total Dipole Moment    :     -0.091475701      -0.551110357      -0.037229823
                        -----------------------------------------
Magnitude (a.u.)       :      0.559889712
Magnitude (Debye)      :      1.423126550

Rotational constants in cm-1:             0.889894             0.127259             0.118768
Rotational constants in MHz :         26678.345540          3815.133621          3560.561673

                             ****ORCA TERMINATED NORMALLY****
TOTAL RUN TIME: 0 days 0 hours 0 minutes 11 seconds 455 msec
