                         Program Version 6.0.0  -   RELEASE  -
|  1> ! r2scan-3c def2/J RI DEFGRID2 scfconv6 printgap
|  2> %output
|  3>     printlevel normal
|  4> end
|  5> %cpcm
|  6>     smd true
|  7>     smdsolvent "water"
|  8> end
|  9> * xyz 0 1
| 10> C -1.9581315255 -0.1074328709 -0.0286166279
| 11> C -0.5770195771 0.5309770227 0.0256657765
| 12> C 0.5329699424 -0.5144797072 -0.0251946004
| 13> O 1.7824649995 0.1485207823 0.0294006442
| 14> H -2.7265235001 0.6593859418 0.009793446
| 15> H -2.0804298195 -0.6740979991 -0.9486077898
| 16> H -2.0998902721 -0.7816879653 0.8126253297
| 17> H -0.462213605 1.1084486826 0.944491016
| 18> H -0.4423914838 1.2153491685 -0.8136549066
| 19> H 0.4308909388 -1.2027447167 0.8252410246
| 20> H 0.4510653258 -1.0946276368 -0.9547151745
| 21> H 2.494003381 -0.5039507466 -0.0064755272
| 22> *
| 23>
| 24>                          ****END OF INPUT****

CARTESIAN COORDINATES (ANGSTROEM)
---------------------------------
  C     -1.958132   -0.107433   -0.028617
  C     -0.577020    0.530977    0.025666
  C      0.532970   -0.514480   -0.025195
  O      1.782465    0.148521    0.029401
  H     -2.726524    0.659386    0.009793
  H     -2.080430   -0.674098   -0.948608
  H     -2.099890   -0.781688    0.812625
  H     -0.462214    1.108449    0.944491
  H     -0.442391    1.215349   -0.813655
  H      0.430891   -1.202745    0.825241
  H      0.451065   -1.094628   -0.954715
  H      2.494003   -0.503951   -0.006476

 Total Charge           Charge          ....    0
 Multiplicity           Mult            ....    1
 Number of Electrons    NEL             ....   34
 Basis Dimension        Dim             ....  121

ORBITAL ENERGIES
----------------

  NO   OCC          E(Eh)            E(eV)
   0   2.0000     -18.949072      -515.6305
   1   2.0000     -10.066924      -273.9349
   2   2.0000     -10.019426      -272.6424
   3   2.0000     -10.011630      -272.4303
   4   2.0000      -0.983785       -26.7702
   5   2.0000      -0.740278       -20.1440
   6   2.0000      -0.634153       -17.2562
   7   2.0000      -0.546948       -14.8832
   8   2.0000      -0.475289       -12.9333
   9   2.0000      -0.438262       -11.9257
  10   2.0000      -0.396126       -10.7791
  11   2.0000      -0.369787       -10.0624
  12   2.0000      -0.335010        -9.1161
  13   2.0000      -0.326517        -8.8850
  14   2.0000      -0.300159        -8.1677
  15   2.0000      -0.287369        -7.8197
  16   2.0000      -0.238985        -6.5031
  17   0.0000       0.075520         2.0550
  18   0.0000       0.109223         2.9721
  19   0.0000       0.142910         3.8888
  20   0.0000       0.147672         4.0184
  21   0.0000       0.156157         4.2492

MULLIKEN ATOMIC CHARGES
-----------------------
   0 C :   -0.504724
   1 C :   -0.223951
   2 C :   -0.130781
   3 O :   -0.514016
   4 H :    0.158845
   5 H :    0.154309
   6 H :    0.154322
   7 H :    0.146065
   8 H :    0.146133
   9 H :    0.134948
  10 H :    0.135021
  11 H :    0.343829
Sum of atomic charges:   -0.0000000

LOEWDIN ATOMIC CHARGES
----------------------
   0 C :   -0.427833
   1 C :   -0.296007
   2 C :    0.005314
   3 O :   -0.667803
   4 H :    0.155900
   5 H :    0.154459
   6 H :    0.154473
   7 H :    0.157767
   8 H :    0.157769
   9 H :    0.160852
  10 H :    0.160921
  11 H :    0.284189

  Mayer bond orders larger than 0.100000
B(  0-C ,  1-C ) :   0.9038 B(  0-C ,  4-H ) :   0.9660 B(  0-C ,  5-H ) :   0.9761
B(  0-C ,  6-H ) :   0.9761 B(  1-C ,  2-C ) :   0.9360 B(  1-C ,  7-H ) :   0.9610
B(  1-C ,  8-H ) :   0.9611 B(  2-C ,  3-O ) :   0.9064 B(  2-C ,  9-H ) :   0.9651
B(  2-C , 10-H ) :   0.9653 B(  3-O , 11-H ) :   0.8755

Dispersion correction           -0.002051240
FINAL SINGLE POINT ENERGY      -194.305499052591

DIPOLE MOMENT
-------------

Method             : SCF
Type of density    : Electron Density
Multiplicity       :   1
Irrep              :   0
Energy             :  -194.3103682776772700 Eh
Relativity type    :
Basis              : AO
                                X                 Y                 Z
Electronic contribution:      3.996986544       0.380966659       0.068224816
Nuclear contribution   :     -4.134720428      -1.192950152      -0.122746777
                        -----------------------------------------
Total Dipole Moment    :     -0.137733884      -0.811983493      -0.054521961
                        -----------------------------------------
Magnitude (a.u.)       :      0.825385038
Magnitude (Debye)      :      2.097962038

Rotational constants in cm-1:             0.889894             0.127259             0.118768
Rotational constants in MHz :         26678.345540          3815.133621          3560.561673

                             ****ORCA TERMINATED NORMALLY****
TOTAL RUN TIME: 0 days 0 hours 0 minutes 13 seconds 499 msec
