                         Program Version 6.0.0  -   RELEASE  -
|  1> ! wb97x-v def2-tzvp def2/J RIJCOSX DEFGRID2 scfconv7 GCP(DFT/TZ) printgap
|  2> %output
|  3>     printlevel normal
|  4> end
|  5> * xyz 0 1
|  6> C -2.5720864467806552 -0.6453394436205804 -0.29775475440166205
|  7> C -1.1988449427127306 -0.2723819516638666 0.2225198711523206
|  8> H -1.2132053857586482 -0.23471545515769415 1.3239684695281755
|  9> C -0.7068486977974413 1.065753969506702 -0.3270835041945044
| 10> H -0.7242432183905914 1.0277090198885757 -1.4291340032275905
| 11> C 0.7246670711477023 1.3062673411513765 0.14478459103818736
| 12> H 0.7167500605994225 1.4314154620582376 1.2353015350281429
| 13> C 1.6304461667140977 0.12807577049011973 -0.20713492312821138
| 14> H 1.710170816219803 0.036825731458642 -1.302950806119904
| 15> C 1.0170980659590574 -1.1570901485201626 0.33156625634826825
| 16> H 0.952117494588108 -1.1271919479748262 1.4317217166268248
| 17> O -0.29883487352226507 -1.3060304619762995 -0.2151649550170988
| 18> O 1.7872244073963937 -2.244468110035331 -0.10415867178826944
| 19> O 2.9228907786011895 0.28115122578543017 0.3814543770559977
| 20> O 1.2494283544909432 2.5341927054324893 -0.37613456882568364
| 21> O -1.5788571350007687 2.093225947816852 0.15085429408978757
| 22> O -3.0534371391871775 -1.8621569556593245 0.2847136735507586
| 23> H -2.5354347342169525 -0.7242257977152902 -1.3940491078641912
| 24> H -3.28659588967828 0.13546926854987962 -0.027572574080684045
| 25> H 1.5739075506727254 -3.0068640636160984 0.45071222820546614
| 26> H 3.2436022015729384 1.1592632114822228 0.1325763799542237
| 27> H 1.2600318797370555 2.463087326527525 -1.3425391479501179
| 28> H -1.1815012009895538 2.9385176859415876 -0.10212816812481376
| 29> H -2.440805640010899 -2.5634460629082443 0.026482754788398476
| 30> *
| 31>
| 32>                          ****END OF INPUT****

CARTESIAN COORDINATES (ANGSTROEM)
---------------------------------
  C     -2.572086   -0.645339   -0.297755
  C     -1.198845   -0.272382    0.222520
  H     -1.213205   -0.234715    1.323968
  C     -0.706849    1.065754   -0.327084
  H     -0.724243    1.027709   -1.429134
  C      0.724667    1.306267    0.144785
  H      0.716750    1.431415    1.235302
  C      1.630446    0.128076   -0.207135
  H      1.710171    0.036826   -1.302951
  C      1.017098   -1.157090    0.331566
  H      0.952117   -1.127192    1.431722
  O     -0.298835   -1.306030   -0.215165
  O      1.787224   -2.244468   -0.104159
  O      2.922891    0.281151    0.381454
  O      1.249428    2.534193   -0.376135
  O     -1.578857    2.093226    0.150854
  O     -3.053437   -1.862157    0.284714
  H     -2.535435   -0.724226   -1.394049
  H     -3.286596    0.135469   -0.027573
  H      1.573908   -3.006864    0.450712
  H      3.243602    1.159263    0.132576
  H      1.260032    2.463087   -1.342539
  H     -1.181501    2.938518   -0.102128
  H     -2.440806   -2.563446    0.026483

 Total Charge           Charge          ....    0
 Multiplicity           Mult            ....    1
 Number of Electrons    NEL             ....   96
 Basis Dimension        Dim             ....  444

ORBITAL ENERGIES
----------------

  NO   OCC          E(Eh)            E(eV)
   0   2.0000     -21.707539      -590.6922
   1   2.0000     -21.696297      -590.3863
   2   2.0000     -21.693418      -590.3079
   3   2.0000     -21.690236      -590.2213
   4   2.0000     -21.683446      -590.0366
   5   2.0000     -21.671823      -589.7203
   6   2.0000     -12.164354      -331.0089
   7   2.0000     -12.119958      -329.8008
   8   2.0000     -12.118782      -329.7688
   9   2.0000     -12.115246      -329.6726
  10   2.0000     -12.113844      -329.6344
  11   2.0000     -12.096428      -329.1605
  12   2.0000      -1.727217       -47.0000
  13   2.0000      -1.710305       -46.5398
  14   2.0000      -1.692906       -46.0663
  15   2.0000      -1.685937       -45.8767
  16   2.0000      -1.684289       -45.8318
  17   2.0000      -1.671173       -45.4749
  18   2.0000      -1.345652       -36.6170
  19   2.0000      -1.329959       -36.1900
  20   2.0000      -1.241471       -33.7821
  21   2.0000      -1.204879       -32.7864
  22   2.0000      -1.176098       -32.0032
  23   2.0000      -1.127422       -30.6787
  24   2.0000      -1.097067       -29.8527
  25   2.0000      -1.085521       -29.5385
  26   2.0000      -1.059066       -28.8187
  27   2.0000      -1.041502       -28.3407
  28   2.0000      -1.030693       -28.0466
  29   2.0000      -1.016374       -27.6569
  30   2.0000      -1.007825       -27.4243
  31   2.0000      -0.994384       -27.0586
  32   2.0000      -0.990077       -26.9414
  33   2.0000      -0.972660       -26.4674
  34   2.0000      -0.962809       -26.1994
  35   2.0000      -0.952832       -25.9279
  36   2.0000      -0.948090       -25.7989
  37   2.0000      -0.939876       -25.5753
  38   2.0000      -0.930767       -25.3275
  39   2.0000      -0.910164       -24.7668
  40   2.0000      -0.905739       -24.6464
  41   2.0000      -0.891742       -24.2655
  42   2.0000      -0.850910       -23.1544
  43   2.0000      -0.836420       -22.7601
  44   2.0000      -0.830458       -22.5979
  45   2.0000      -0.816760       -22.2252
  46   2.0000      -0.799005       -21.7420
  47   2.0000      -0.779172       -21.2024
  48   0.0000      -0.248532        -6.7629
  49   0.0000      -0.201243        -5.4761
  50   0.0000      -0.184076        -5.0090
  51   0.0000      -0.160553        -4.3689
  52   0.0000      -0.126877        -3.4525

MULLIKEN ATOMIC CHARGES
-----------------------
   0 C :   -0.013195
   1 C :    0.029608
   2 H :    0.085201
   3 C :    0.061449
   4 H :    0.068775
   5 C :   -0.025373
   6 H :    0.107881
   7 C :    0.101594
   8 H :    0.068632
   9 C :    0.092982
  10 H :    0.073629
  11 O :   -0.280920
  12 O :   -0.385662
  13 O :   -0.415348
  14 O :   -0.446912
  15 O :   -0.431551
  16 O :   -0.450913
  17 H :    0.088601
  18 H :    0.123621
  19 H :    0.310949
  20 H :    0.309305
  21 H :    0.307764
  22 H :    0.313093
  23 H :    0.306789
Sum of atomic charges:    0.0000000

LOEWDIN ATOMIC CHARGES
----------------------
   0 C :   -0.306124
   1 C :   -0.300358
   2 H :    0.145658
   3 C :   -0.312349
   4 H :    0.137819
   5 C :   -0.319157
   6 H :    0.155741
   7 C :   -0.315638
   8 H :    0.140917
   9 C :   -0.402308
  10 H :    0.125868
  11 O :    0.180594
  12 O :    0.025778
  13 O :   -0.004937
  14 O :   -0.021367
  15 O :   -0.008489
  16 O :   -0.049828
  17 H :    0.120878
  18 H :    0.137100
  19 H :    0.178105
  20 H :    0.173890
  21 H :    0.173430
  22 H :    0.175446
  23 H :    0.169333

  Mayer bond orders larger than 0.100000
B(  0-C ,  1-C ) :   0.9810 B(  0-C , 16-O ) :   1.0179 B(  0-C , 17-H ) :   0.9696
B(  0-C , 18-H ) :   0.9649 B(  1-C ,  2-H ) :   0.9598 B(  1-C ,  3-C ) :   0.9327
B(  1-C , 11-O ) :   0.9701 B(  3-C ,  4-H ) :   0.9368 B(  3-C ,  5-C ) :   0.9942
B(  3-C , 15-O ) :   1.0775 B(  5-C ,  6-H ) :   0.9527 B(  5-C ,  7-C ) :   0.9986
B(  5-C , 14-O ) :   0.9798 B(  7-C ,  8-H ) :   0.9496 B(  7-C ,  9-C ) :   0.9226
B(  7-C , 13-O ) :   1.1148 B(  9-C , 10-H ) :   0.9813 B(  9-C , 11-O ) :   1.0130
B(  9-C , 12-O ) :   1.2543 B( 12-O , 19-H ) :   0.8939 B( 13-O , 20-H ) :   0.8863
B( 14-O , 21-H ) :   0.8902 B( 15-O , 22-H ) :   0.8839 B( 16-O , 23-H ) :   0.8946

FINAL SINGLE POINT ENERGY      -687.245886229584

DIPOLE MOMENT
-------------

Method             : SCF
Type of density    : Electron Density
Multiplicity       :   1
Irrep              :   0
Energy             :  -687.2646666468838248 Eh
Relativity type    :
Basis              : AO
                                X                 Y                 Z
Electronic contribution:      2.264019631      -1.053890200       0.360949874
Nuclear contribution   :     -1.868695494       1.522158365      -0.892606924
                        -----------------------------------------
Total Dipole Moment    :      0.395324137       0.468268165      -0.531657051
                        -----------------------------------------
Magnitude (a.u.)       :      0.811304793
Magnitude (Debye)      :      2.062172900

Rotational constants in cm-1:             0.038793             0.026002             0.016300
Rotational constants in MHz :          1162.994331           779.514490           488.661744

                             ****ORCA TERMINATED NORMALLY****
TOTAL RUN TIME: 0 days 0 hours 4 minutes 50 seconds 905 msec
