                         Program Version 6.0.0  -   RELEASE  -
|  1> ! wb97x-v def2-tzvp def2/J RIJCOSX DEFGRID2 scfconv7 GCP(DFT/TZ) printgap
|  2> %output
|  3>     printlevel normal
|  4> end
|  5> %cpcm
|  6>     smd true
|  7>     smdsolvent "water"
|  8> end
|  9> * xyz 0 1
| 10> C -2.5720864467806552 -0.6453394436205804 -0.29775475440166205
| 11> C -1.1988449427127306 -0.2723819516638666 0.2225198711523206
| 12> H -1.2132053857586482 -0.23471545515769415 1.3239684695281755
| 13> C -0.7068486977974413 1.065753969506702 -0.3270835041945044
| 14> H -0.7242432183905914 1.0277090198885757 -1.4291340032275905
| 15> C 0.7246670711477023 1.3062673411513765 0.14478459103818736
| 16> H 0.7167500605994225 1.4314154620582376 1.2353015350281429
| 17> C 1.6304461667140977 0.12807577049011973 -0.20713492312821138
| 18> H 1.710170816219803 0.036825731458642 -1.302950806119904
| 19> C 1.0170980659590574 -1.1570901485201626 0.33156625634826825
| 20> H 0.952117494588108 -1.1271919479748262 1.4317217166268248
| 21> O -0.29883487352226507 -1.3060304619762995 -0.2151649550170988
| 22> O 1.7872244073963937 -2.244468110035331 -0.10415867178826944
| 23> O 2.9228907786011895 0.28115122578543017 0.3814543770559977
| 24> O 1.2494283544909432 2.5341927054324893 -0.37613456882568364
| 25> O -1.5788571350007687 2.093225947816852 0.15085429408978757
| 26> O -3.0534371391871775 -1.8621569556593245 0.2847136735507586
| 27> H -2.5354347342169525 -0.7242257977152902 -1.3940491078641912
| 28> H -3.28659588967828 0.13546926854987962 -0.027572574080684045
| 29> H 1.5739075506727254 -3.0068640636160984 0.45071222820546614
| 30> H 3.2436022015729384 1.1592632114822228 0.1325763799542237
| 31> H 1.2600318797370555 2.463087326527525 -1.3425391479501179
| 32> H -1.1815012009895538 2.9385176859415876 -0.10212816812481376
| 33> H -2.440805640010899 -2.5634460629082443 0.026482754788398476
| 34> *
| 35>
| 36>                          ****END OF INPUT****

CARTESIAN COORDINATES (ANGSTROEM)
---------------------------------
  C     -2.572086   -0.645339   -0.297755
  C     -1.198845   -0.272382    0.222520
  H     -1.213205   -0.234715    1.323968
  C     -0.706849    1.065754   -0.327084
  H     -0.724243    1.027709   -1.429134
  C      0.724667    1.306267    0.144785
  H      0.716750    1.431415    1.235302
  C      1.630446    0.128076   -0.207135
  H      1.710171    0.036826   -1.302951
  C      1.017098   -1.157090    0.331566
  H      0.952117   -1.127192    1.431722
  O     -0.298835   -1.306030   -0.215165
  O      1.787224   -2.244468   -0.104159
  O      2.922891    0.281151    0.381454
  O      1.249428    2.534193   -0.376135
  O     -1.578857    2.093226    0.150854
  O     -3.053437   -1.862157    0.284714
  H     -2.535435   -0.724226   -1.394049
  H     -3.286596    0.135469   -0.027573
  H      1.573908   -3.006864    0.450712
  H      3.243602    1.159263    0.132576
  H      1.260032    2.463087   -1.342539
  H     -1.181501    2.938518   -0.102128
  H     -2.440806   -2.563446    0.026483

 Total Charge           Charge          ....    0
 Multiplicity           Mult            ....    1
 Number of Electrons    NEL             ....   96
 Basis Dimension        Dim             ....  444

ORBITAL ENERGIES
----------------

  NO   OCC          E(Eh)            E(eV)
   0   2.0000     -21.691964      -590.2684
   1   2.0000     -21.691426      -590.2537
   2   2.0000     -21.686101      -590.1088
   3   2.0000     -21.682305      -590.0055
   4   2.0000     -21.682142      -590.0011
   5   2.0000     -21.677368      -589.8712
   6   2.0000     -12.153844      -330.7229
   7   2.0000     -12.104216      -329.3725
   8   2.0000     -12.103773      -329.3604
   9   2.0000     -12.103026      -329.3401
  10   2.0000     -12.102053      -329.3136
  11   2.0000     -12.091251      -329.0197
  12   2.0000      -1.723642       -46.9027
  13   2.0000      -1.692436       -46.0535
  14   2.0000      -1.686634       -45.8957
  15   2.0000      -1.681941       -45.7680
  16   2.0000      -1.679730       -45.7078
  17   2.0000      -1.675851       -45.6022
  18   2.0000      -1.332282       -36.2532
  19   2.0000      -1.321753       -35.9667
  20   2.0000      -1.233910       -33.5764
  21   2.0000      -1.194675       -32.5088
  22   2.0000      -1.169615       -31.8268
  23   2.0000      -1.120240       -30.4833
  24   2.0000      -1.089661       -29.6512
  25   2.0000      -1.075552       -29.2672
  26   2.0000      -1.053171       -28.6582
  27   2.0000      -1.040523       -28.3141
  28   2.0000      -1.023632       -27.8544
  29   2.0000      -1.008905       -27.4537
  30   2.0000      -1.001347       -27.2480
  31   2.0000      -0.987107       -26.8606
  32   2.0000      -0.981765       -26.7152
  33   2.0000      -0.965864       -26.2825
  34   2.0000      -0.963685       -26.2232
  35   2.0000      -0.953223       -25.9385
  36   2.0000      -0.941335       -25.6150
  37   2.0000      -0.936746       -25.4902
  38   2.0000      -0.925238       -25.1770
  39   2.0000      -0.907923       -24.7058
  40   2.0000      -0.900095       -24.4928
  41   2.0000      -0.887294       -24.1445
  42   2.0000      -0.842209       -22.9177
  43   2.0000      -0.828554       -22.5461
  44   2.0000      -0.822007       -22.3680
  45   2.0000      -0.806575       -21.9480
  46   2.0000      -0.788914       -21.4674
  47   2.0000      -0.766681       -20.8625
  48   0.0000      -0.237559        -6.4643
  49   0.0000      -0.191073        -5.1994
  50   0.0000      -0.174432        -4.7465
  51   0.0000      -0.151582        -4.1248
  52   0.0000      -0.118713        -3.2303

MULLIKEN ATOMIC CHARGES
-----------------------
   0 C :   -0.014525
   1 C :    0.052707
   2 H :    0.104269
   3 C :    0.032196
   4 H :    0.111790
   5 C :    0.060750
   6 H :    0.117161
   7 C :    0.084236
   8 H :    0.104368
   9 C :    0.110906
  10 H :    0.109434
  11 O :   -0.331989
  12 O :   -0.486867
  13 O :   -0.521159
  14 O :   -0.527870
  15 O :   -0.524917
  16 O :   -0.549304
  17 H :    0.119195
  18 H :    0.130252
  19 H :    0.376000
  20 H :    0.360310
  21 H :    0.365794
  22 H :    0.359453
  23 H :    0.357808
Sum of atomic charges:    0.0000000

LOEWDIN ATOMIC CHARGES
----------------------
   0 C :   -0.307031
   1 C :   -0.297048
   2 H :    0.152890
   3 C :   -0.300298
   4 H :    0.152275
   5 C :   -0.310678
   6 H :    0.159503
   7 C :   -0.311391
   8 H :    0.151201
   9 C :   -0.399366
  10 H :    0.139200
  11 O :    0.162828
  12 O :   -0.011809
  13 O :   -0.044275
  14 O :   -0.043933
  15 O :   -0.040276
  16 O :   -0.088091
  17 H :    0.129583
  18 H :    0.137125
  19 H :    0.201295
  20 H :    0.191475
  21 H :    0.198726
  22 H :    0.191494
  23 H :    0.186600

  Mayer bond orders larger than 0.100000
B(  0-C ,  1-C ) :   0.9691 B(  0-C , 16-O ) :   0.9820 B(  0-C , 17-H ) :   0.9709
B(  0-C , 18-H ) :   0.9661 B(  1-C ,  2-H ) :   0.9496 B(  1-C ,  3-C ) :   0.9614
B(  1-C , 11-O ) :   0.9516 B(  3-C ,  4-H ) :   0.9488 B(  3-C ,  5-C ) :   1.0019
B(  3-C , 15-O ) :   1.0304 B(  5-C ,  6-H ) :   0.9401 B(  5-C ,  7-C ) :   1.0070
B(  5-C , 14-O ) :   0.9895 B(  7-C ,  8-H ) :   0.9513 B(  7-C ,  9-C ) :   0.9432
B(  7-C , 13-O ) :   1.0545 B(  9-C , 10-H ) :   0.9812 B(  9-C , 11-O ) :   1.0105
B(  9-C , 12-O ) :   1.2022 B( 12-O , 19-H ) :   0.8535 B( 13-O , 20-H ) :   0.8566
B( 14-O , 21-H ) :   0.8579 B( 15-O , 22-H ) :   0.8564 B( 16-O , 23-H ) :   0.8636

FINAL SINGLE POINT ENERGY      -687.287651645265

DIPOLE MOMENT
-------------

Method             : SCF
Type of density    : Electron Density
Multiplicity       :   1
Irrep              :   0
Energy             :  -687.3064320625650225 Eh
Relativity type    :
Basis              : AO
                                X                 Y                 Z
Electronic contribution:      2.338526593      -0.823606602       0.113278504
Nuclear contribution   :     -1.868695494       1.522158365      -0.892606924
                        -----------------------------------------
Total Dipole Moment    :      0.469831100       0.698551763      -0.779328420
                        -----------------------------------------
Magnitude (a.u.)       :      1.147200337
Magnitude (Debye)      :      2.915951523

Rotational constants in cm-1:             0.038793             0.026002             0.016300
Rotational constants in MHz :          1162.994331           779.514490           488.661744

                             ****ORCA TERMINATED NORMALLY****
TOTAL RUN TIME: 0 days 0 hours 5 minutes 24 seconds 579 msec
