                         Program Version 6.0.0  -   RELEASE  -
|  1> ! wb97x-v def2-tzvp def2/J RIJCOSX DEFGRID2 scfconv7 GCP(DFT/TZ) printgap
|  2> %output
|  3>     printlevel normal
|  4> end
|  5> * xyz 0 1
|  6> C 2.074903732112298 -1.0343447873069374 0.0003505308839446335
|  7> C 2.331339792599357 0.3430781813486011 0.00012111864416043276
|  8> C 1.3009034695657815 1.2717871427044223 -0.00010221785138478826
|  9> C -0.021970969416391525 0.8299480555338072 -0.0001286881688218619
| 10> C -0.3006988788442884 -0.55899664986593 -3.8631993232518384e-05
| 11> C 0.7661659890794533 -1.4755330973297305 0.0002831066776411242
| 12> C -1.6583324925100607 -1.0467760135094744 -0.0004285388911971584
| 13> O -2.6590185080072897 -0.3128439565855614 -3.98431918814472e-05
| 14> O -1.0180521088028653 1.7466057720012864 -0.00039721297404836625
| 15> H 2.895955556282882 -1.7419944206621665 0.0005568064230075024
| 16> H 3.3574846765129043 0.6968072379091663 0.00017476792063716976
| 17> H 1.5039636340140998 2.3373090126314175 -0.00027733643928060087
| 18> H 0.5350308297283596 -2.5370722819712235 0.0004326626489708475
| 19> H -1.7809223693472478 -2.144176928235463 0.000659374783389905
| 20> H -1.8677308263411716 1.2397173102986723 -0.0003900601634649145
| 21> *
| 22>
| 23>                          ****END OF INPUT****

CARTESIAN COORDINATES (ANGSTROEM)
---------------------------------
  C      2.074904   -1.034345    0.000351
  C      2.331340    0.343078    0.000121
  C      1.300903    1.271787   -0.000102
  C     -0.021971    0.829948   -0.000129
  C     -0.300699   -0.558997   -0.000039
  C      0.766166   -1.475533    0.000283
  C     -1.658332   -1.046776   -0.000429
  O     -2.659019   -0.312844   -0.000040
  O     -1.018052    1.746606   -0.000397
  H      2.895956   -1.741994    0.000557
  H      3.357485    0.696807    0.000175
  H      1.503964    2.337309   -0.000277
  H      0.535031   -2.537072    0.000433
  H     -1.780922   -2.144177    0.000659
  H     -1.867731    1.239717   -0.000390

 Total Charge           Charge          ....    0
 Multiplicity           Mult            ....    1
 Number of Electrons    NEL             ....   64
 Basis Dimension        Dim             ....  315

ORBITAL ENERGIES
----------------

  NO   OCC          E(Eh)            E(eV)
   0   2.0000     -21.702014      -590.5418
   1   2.0000     -21.687964      -590.1595
   2   2.0000     -12.156685      -330.8002
   3   2.0000     -12.138945      -330.3175
   4   2.0000     -12.082499      -328.7815
   5   2.0000     -12.080152      -328.7176
   6   2.0000     -12.072109      -328.4988
   7   2.0000     -12.063158      -328.2552
   8   2.0000     -12.062526      -328.2380
   9   2.0000      -1.728285       -47.0290
  10   2.0000      -1.718070       -46.7511
  11   2.0000      -1.407594       -38.3026
  12   2.0000      -1.319169       -35.8964
  13   2.0000      -1.299052       -35.3490
  14   2.0000      -1.203528       -32.7497
  15   2.0000      -1.151465       -31.3330
  16   2.0000      -1.134594       -30.8739
  17   2.0000      -1.079717       -29.3806
  18   2.0000      -1.028530       -27.9877
  19   2.0000      -1.024852       -27.8876
  20   2.0000      -0.998723       -27.1766
  21   2.0000      -0.953842       -25.9554
  22   2.0000      -0.950861       -25.8742
  23   2.0000      -0.942933       -25.6585
  24   2.0000      -0.917642       -24.9703
  25   2.0000      -0.910176       -24.7672
  26   2.0000      -0.866040       -23.5661
  27   2.0000      -0.845381       -23.0040
  28   2.0000      -0.818217       -22.2648
  29   2.0000      -0.788620       -21.4594
  30   2.0000      -0.675362       -18.3775
  31   2.0000      -0.654027       -17.7970
  32   0.0000      -0.367805       -10.0085
  33   0.0000      -0.258914        -7.0454
  34   0.0000      -0.222315        -6.0495
  35   0.0000      -0.145118        -3.9489
  36   0.0000      -0.081069        -2.2060

MULLIKEN ATOMIC CHARGES
-----------------------
   0 C :   -0.152113
   1 C :   -0.067812
   2 C :   -0.216194
   3 C :    0.199425
   4 C :    0.053286
   5 C :   -0.156574
   6 C :    0.126936
   7 O :   -0.376645
   8 O :   -0.371368
   9 H :    0.124791
  10 H :    0.129717
  11 H :    0.131599
  12 H :    0.129586
  13 H :    0.101632
  14 H :    0.343733
Sum of atomic charges:    0.0000000

LOEWDIN ATOMIC CHARGES
----------------------
   0 C :   -0.157946
   1 C :   -0.105787
   2 C :   -0.114105
   3 C :   -0.205345
   4 C :   -0.164000
   5 C :   -0.086946
   6 C :   -0.225983
   7 O :    0.055204
   8 O :    0.101137
   9 H :    0.143202
  10 H :    0.147360
  11 H :    0.151275
  12 H :    0.149197
  13 H :    0.127158
  14 H :    0.185578

  Mayer bond orders larger than 0.100000
B(  0-C ,  1-C ) :   1.3715 B(  0-C ,  5-C ) :   1.5072 B(  0-C ,  9-H ) :   0.9731
B(  1-C ,  2-C ) :   1.4668 B(  1-C , 10-H ) :   0.9682 B(  2-C ,  3-C ) :   1.4106
B(  2-C , 11-H ) :   0.9685 B(  3-C ,  4-C ) :   1.2188 B(  3-C ,  8-O ) :   1.2755
B(  4-C ,  5-C ) :   1.2726 B(  4-C ,  6-C ) :   1.0097 B(  5-C , 12-H ) :   0.9566
B(  6-C ,  7-O ) :   1.9124 B(  6-C , 13-H ) :   1.0160 B(  7-O , 14-H ) :   0.1265
B(  8-O , 14-H ) :   0.7909

FINAL SINGLE POINT ENERGY      -420.831068003319

DIPOLE MOMENT
-------------

Method             : SCF
Type of density    : Electron Density
Multiplicity       :   1
Irrep              :   0
Energy             :  -420.8391306331187707 Eh
Relativity type    :
Basis              : AO
                                X                 Y                 Z
Electronic contribution:     -3.254122115       1.252098262      -0.001277692
Nuclear contribution   :      4.311172596      -2.027928982       0.001316723
                        -----------------------------------------
Total Dipole Moment    :      1.057050482      -0.775830720       0.000039031
                        -----------------------------------------
Magnitude (a.u.)       :      1.311208995
Magnitude (Debye)      :      3.332828401

Rotational constants in cm-1:             0.107296             0.049978             0.034096
Rotational constants in MHz :          3216.654511          1498.300535          1022.176284

                             ****ORCA TERMINATED NORMALLY****
TOTAL RUN TIME: 0 days 0 hours 2 minutes 33 seconds 314 msec
