                         Program Version 6.0.0  -   RELEASE  -
|  1> ! wb97x-v def2-tzvp def2/J RIJCOSX DEFGRID2 scfconv7 GCP(DFT/TZ) printgap
|  2> %output
|  3>     printlevel normal
|  4> end
|  5> %cpcm
|  6>     smd true
|  7>     smdsolvent "water"
|  8> end
|  9> * xyz 0 1
| 10> C 2.074903732112298 -1.0343447873069374 0.0003505308839446335
| 11> C 2.331339792599357 0.3430781813486011 0.00012111864416043276
| 12> C 1.3009034695657815 1.2717871427044223 -0.00010221785138478826
| 13> C -0.021970969416391525 0.8299480555338072 -0.0001286881688218619
| 14> C -0.3006988788442884 -0.55899664986593 -3.8631993232518384e-05
| 15> C 0.7661659890794533 -1.4755330973297305 0.0002831066776411242
| 16> C -1.6583324925100607 -1.0467760135094744 -0.0004285388911971584
| 17> O -2.6590185080072897 -0.3128439565855614 -3.98431918814472e-05
| 18> O -1.0180521088028653 1.7466057720012864 -0.00039721297404836625
| 19> H 2.895955556282882 -1.7419944206621665 0.0005568064230075024
| 20> H 3.3574846765129043 0.6968072379091663 0.00017476792063716976
| 21> H 1.5039636340140998 2.3373090126314175 -0.00027733643928060087
| 22> H 0.5350308297283596 -2.5370722819712235 0.0004326626489708475
| 23> H -1.7809223693472478 -2.144176928235463 0.000659374783389905
| 24> H -1.8677308263411716 1.2397173102986723 -0.0003900601634649145
| 25> *
| 26>
| 27>                          ****END OF INPUT****

CARTESIAN COORDINATES (ANGSTROEM)
---------------------------------
  C      2.074904   -1.034345    0.000351
  C      2.331340    0.343078    0.000121
  C      1.300903    1.271787   -0.000102
  C     -0.021971    0.829948   -0.000129
  C     -0.300699   -0.558997   -0.000039
  C      0.766166   -1.475533    0.000283
  C     -1.658332   -1.046776   -0.000429
  O     -2.659019   -0.312844   -0.000040
  O     -1.018052    1.746606   -0.000397
  H      2.895956   -1.741994    0.000557
  H      3.357485    0.696807    0.000175
  H      1.503964    2.337309   -0.000277
  H      0.535031   -2.537072    0.000433
  H     -1.780922   -2.144177    0.000659
  H     -1.867731    1.239717   -0.000390

 Total Charge           Charge          ....    0
 Multiplicity           Mult            ....    1
 Number of Electrons    NEL             ....   64
 Basis Dimension        Dim             ....  315

ORBITAL ENERGIES
----------------

  NO   OCC          E(Eh)            E(eV)
   0   2.0000     -21.704730      -590.6157
   1   2.0000     -21.686143      -590.1100
   2   2.0000     -12.150980      -330.6450
   3   2.0000     -12.133589      -330.1717
   4   2.0000     -12.069866      -328.4378
   5   2.0000     -12.068645      -328.4045
   6   2.0000     -12.063979      -328.2776
   7   2.0000     -12.053334      -327.9879
   8   2.0000     -12.050537      -327.9118
   9   2.0000      -1.729824       -47.0709
  10   2.0000      -1.719538       -46.7910
  11   2.0000      -1.399042       -38.0699
  12   2.0000      -1.310041       -35.6480
  13   2.0000      -1.291043       -35.1311
  14   2.0000      -1.196994       -32.5719
  15   2.0000      -1.148678       -31.2571
  16   2.0000      -1.127091       -30.6697
  17   2.0000      -1.076504       -29.2932
  18   2.0000      -1.022506       -27.8238
  19   2.0000      -1.020929       -27.7809
  20   2.0000      -0.996875       -27.1263
  21   2.0000      -0.955301       -25.9951
  22   2.0000      -0.946874       -25.7657
  23   2.0000      -0.931791       -25.3553
  24   2.0000      -0.921313       -25.0702
  25   2.0000      -0.897429       -24.4203
  26   2.0000      -0.853465       -23.2240
  27   2.0000      -0.834629       -22.7114
  28   2.0000      -0.810024       -22.0419
  29   2.0000      -0.781194       -21.2574
  30   2.0000      -0.666686       -18.1415
  31   2.0000      -0.646837       -17.6013
  32   0.0000      -0.358300        -9.7498
  33   0.0000      -0.249639        -6.7930
  34   0.0000      -0.213050        -5.7974
  35   0.0000      -0.140952        -3.8355
  36   0.0000      -0.071582        -1.9479

MULLIKEN ATOMIC CHARGES
-----------------------
   0 C :   -0.191541
   1 C :   -0.098577
   2 C :   -0.263769
   3 C :    0.236228
   4 C :    0.026845
   5 C :   -0.181296
   6 C :    0.165277
   7 O :   -0.464265
   8 O :   -0.433852
   9 H :    0.166965
  10 H :    0.171516
  11 H :    0.162406
  12 H :    0.178179
  13 H :    0.156481
  14 H :    0.369404
Sum of atomic charges:    0.0000000

LOEWDIN ATOMIC CHARGES
----------------------
   0 C :   -0.159599
   1 C :   -0.104015
   2 C :   -0.124339
   3 C :   -0.214162
   4 C :   -0.162934
   5 C :   -0.077446
   6 C :   -0.203582
   7 O :    0.004975
   8 O :    0.071645
   9 H :    0.153112
  10 H :    0.158468
  11 H :    0.158134
  12 H :    0.163786
  13 H :    0.145411
  14 H :    0.190545

  Mayer bond orders larger than 0.100000
B(  0-C ,  1-C ) :   1.3543 B(  0-C ,  5-C ) :   1.4714 B(  0-C ,  9-H ) :   0.9761
B(  1-C ,  2-C ) :   1.4514 B(  1-C , 10-H ) :   0.9680 B(  2-C ,  3-C ) :   1.3869
B(  2-C , 11-H ) :   0.9781 B(  3-C ,  4-C ) :   1.2111 B(  3-C ,  8-O ) :   1.2163
B(  4-C ,  5-C ) :   1.2584 B(  4-C ,  6-C ) :   1.0368 B(  5-C , 12-H ) :   0.9599
B(  6-C ,  7-O ) :   1.8417 B(  6-C , 13-H ) :   0.9950 B(  7-O , 14-H ) :   0.1189
B(  8-O , 14-H ) :   0.7784

FINAL SINGLE POINT ENERGY      -420.838901804679

DIPOLE MOMENT
-------------

Method             : SCF
Type of density    : Electron Density
Multiplicity       :   1
Irrep              :   0
Energy             :  -420.8469644344793323 Eh
Relativity type    :
Basis              : AO
                                X                 Y                 Z
Electronic contribution:     -2.841149086       0.814024473      -0.001247597
Nuclear contribution   :      4.311172596      -2.027928982       0.001316723
                        -----------------------------------------
Total Dipole Moment    :      1.470023510      -1.213904508       0.000069126
                        -----------------------------------------
Magnitude (a.u.)       :      1.906445195
Magnitude (Debye)      :      4.845798583

Rotational constants in cm-1:             0.107296             0.049978             0.034096
Rotational constants in MHz :          3216.654511          1498.300535          1022.176284

                             ****ORCA TERMINATED NORMALLY****
TOTAL RUN TIME: 0 days 0 hours 2 minutes 37 seconds 327 msec
