                         Program Version 6.0.0  -   RELEASE  -
|  1> ! pbe def2-sv(p) def2/J RI DEFGRID1 loosescf d4 GCP(DFT/SV(P)) printgap
|  2> %output
|  3>     printlevel normal
|  4> end
|  5> * xyz 0 1
|  6> C -2.5417107802 -0.9211610272 0.2843946056
|  7> C -1.1203535355 -0.4716097399 0.6289559501
|  8> H -1.0253012644 -0.3993177531 1.7234531676
|  9> C -0.8257681934 0.910763948 0.0301915821
| 10> H -1.0685335427 0.8759534949 -1.0437917731
| 11> C 0.6598619269 1.2781174261 0.1996788214
| 12> H 0.877025113 1.4158814534 1.2656466858
| 13> C 1.533552371 0.1446763444 -0.3388547786
| 14> H 1.3522722979 0.0305679631 -1.421448182
| 15> C 1.1211637474 -1.1699115797 0.3603897474
| 16> H 1.326667525 -1.0694986464 1.4412622345
| 17> O -0.2325073001 -1.4539089958 0.133724058
| 18> O 1.8728596822 -2.2378471022 -0.0987716739
| 19> O 2.885998921 0.431343838 -0.0968319356
| 20> O 0.9230998378 2.5260113651 -0.391240906
| 21> O -1.6442497075 1.8469658285 0.6853206576
| 22> O -2.7024911967 -0.9173103206 -1.1147298317
| 23> H -3.2338935749 -0.2188224492 0.7625017241
| 24> H -2.6857855687 -1.928824165 0.6899267002
| 25> H 1.4247174902 -2.6279354839 -0.8664693669
| 26> H 3.4030967271 -0.3809389071 -0.218035546
| 27> H 1.0120007714 2.4278517983 -1.3503362984
| 28> H -1.312102125 2.7346068508 0.4753279833
| 29> H -3.5930756405 -1.2285495981 -1.32899562
| 30> *
| 31>
| 32>                          ****END OF INPUT****

CARTESIAN COORDINATES (ANGSTROEM)
---------------------------------
  C     -2.541711   -0.921161    0.284395
  C     -1.120354   -0.471610    0.628956
  H     -1.025301   -0.399318    1.723453
  C     -0.825768    0.910764    0.030192
  H     -1.068534    0.875953   -1.043792
  C      0.659862    1.278117    0.199679
  H      0.877025    1.415881    1.265647
  C      1.533552    0.144676   -0.338855
  H      1.352272    0.030568   -1.421448
  C      1.121164   -1.169912    0.360390
  H      1.326668   -1.069499    1.441262
  O     -0.232507   -1.453909    0.133724
  O      1.872860   -2.237847   -0.098772
  O      2.885999    0.431344   -0.096832
  O      0.923100    2.526011   -0.391241
  O     -1.644250    1.846966    0.685321
  O     -2.702491   -0.917310   -1.114730
  H     -3.233894   -0.218822    0.762502
  H     -2.685786   -1.928824    0.689927
  H      1.424717   -2.627935   -0.866469
  H      3.403097   -0.380939   -0.218036
  H      1.012001    2.427852   -1.350336
  H     -1.312102    2.734607    0.475328
  H     -3.593076   -1.228550   -1.328996

 Total Charge           Charge          ....    0
 Multiplicity           Mult            ....    1
 Number of Electrons    NEL             ....   96
 Basis Dimension        Dim             ....  192

ORBITAL ENERGIES
----------------

  NO   OCC          E(Eh)            E(eV)
   0   2.0000     -18.774732      -510.8864
   1   2.0000     -18.768040      -510.7043
   2   2.0000     -18.755741      -510.3697
   3   2.0000     -18.752506      -510.2816
   4   2.0000     -18.748299      -510.1671
   5   2.0000     -18.747443      -510.1439
   6   2.0000      -9.989710      -271.8338
   7   2.0000      -9.948095      -270.7014
   8   2.0000      -9.940371      -270.4912
   9   2.0000      -9.939989      -270.4808
  10   2.0000      -9.935541      -270.3598
  11   2.0000      -9.933653      -270.3084
  12   2.0000      -0.990579       -26.9550
  13   2.0000      -0.944210       -25.6933
  14   2.0000      -0.935397       -25.4535
  15   2.0000      -0.923303       -25.1244
  16   2.0000      -0.915774       -24.9195
  17   2.0000      -0.913066       -24.8458
  18   2.0000      -0.702642       -19.1199
  19   2.0000      -0.693887       -18.8816
  20   2.0000      -0.614426       -16.7194
  21   2.0000      -0.585804       -15.9405
  22   2.0000      -0.559746       -15.2315
  23   2.0000      -0.538999       -14.6669
  24   2.0000      -0.502700       -13.6792
  25   2.0000      -0.488095       -13.2817
  26   2.0000      -0.470374       -12.7995
  27   2.0000      -0.461635       -12.5617
  28   2.0000      -0.442673       -12.0457
  29   2.0000      -0.428178       -11.6513
  30   2.0000      -0.416681       -11.3385
  31   2.0000      -0.411108       -11.1868
  32   2.0000      -0.393516       -10.7081
  33   2.0000      -0.375244       -10.2109
  34   2.0000      -0.355200        -9.6655
  35   2.0000      -0.342750        -9.3267
  36   2.0000      -0.323259        -8.7963
  37   2.0000      -0.321597        -8.7511
  38   2.0000      -0.303944        -8.2707
  39   2.0000      -0.299641        -8.1536
  40   2.0000      -0.281168        -7.6510
  41   2.0000      -0.276537        -7.5249
  42   2.0000      -0.256054        -6.9676
  43   2.0000      -0.236781        -6.4431
  44   2.0000      -0.232095        -6.3156
  45   2.0000      -0.220186        -5.9916
  46   2.0000      -0.210776        -5.7355
  47   2.0000      -0.204071        -5.5531
  48   0.0000       0.016302         0.4436
  49   0.0000       0.024643         0.6706
  50   0.0000       0.030206         0.8220
  51   0.0000       0.050403         1.3715
  52   0.0000       0.061410         1.6710

MULLIKEN ATOMIC CHARGES
-----------------------
   0 C :    0.072307
   1 C :    0.026796
   2 H :    0.062669
   3 C :    0.044521
   4 H :    0.054515
   5 C :    0.073562
   6 H :    0.063784
   7 C :    0.048863
   8 H :    0.026120
   9 C :    0.165281
  10 H :    0.054305
  11 O :   -0.306313
  12 O :   -0.391995
  13 O :   -0.405239
  14 O :   -0.412003
  15 O :   -0.423758
  16 O :   -0.438336
  17 H :    0.085632
  18 H :    0.078218
  19 H :    0.308709
  20 H :    0.301953
  21 H :    0.302191
  22 H :    0.304752
  23 H :    0.303467
Sum of atomic charges:    0.0000000

LOEWDIN ATOMIC CHARGES
----------------------
   0 C :   -0.122990
   1 C :   -0.055513
   2 H :    0.110244
   3 C :   -0.078843
   4 H :    0.102324
   5 C :   -0.078793
   6 H :    0.118639
   7 C :   -0.099690
   8 H :    0.091817
   9 C :   -0.002341
  10 H :    0.096736
  11 O :   -0.142617
  12 O :   -0.299034
  13 O :   -0.318256
  14 O :   -0.308464
  15 O :   -0.322292
  16 O :   -0.339412
  17 H :    0.109067
  18 H :    0.102254
  19 H :    0.292170
  20 H :    0.283536
  21 H :    0.287362
  22 H :    0.284820
  23 H :    0.289276

  Mayer bond orders larger than 0.100000
B(  0-C ,  1-C ) :   1.0650 B(  0-C , 16-O ) :   1.0855 B(  0-C , 17-H ) :   0.9072
B(  0-C , 18-H ) :   0.9122 B(  1-C ,  2-H ) :   0.8778 B(  1-C ,  3-C ) :   1.0128
B(  1-C , 11-O ) :   0.9830 B(  3-C ,  4-H ) :   0.8592 B(  3-C ,  5-C ) :   1.0089
B(  3-C , 15-O ) :   1.0630 B(  5-C ,  6-H ) :   0.8682 B(  5-C ,  7-C ) :   1.0037
B(  5-C , 14-O ) :   1.0469 B(  7-C ,  8-H ) :   0.8523 B(  7-C ,  9-C ) :   0.9777
B(  7-C , 13-O ) :   1.1015 B(  9-C , 10-H ) :   0.8802 B(  9-C , 11-O ) :   1.0318
B(  9-C , 12-O ) :   1.1130 B( 12-O , 19-H ) :   0.8388 B( 13-O , 20-H ) :   0.8329
B( 14-O , 21-H ) :   0.8470 B( 15-O , 22-H ) :   0.8300 B( 16-O , 23-H ) :   0.8499

Dispersion correction           -0.023868486
FINAL SINGLE POINT ENERGY      -685.696740839262

DIPOLE MOMENT
-------------

Method             : SCF
Type of density    : Electron Density
Multiplicity       :   1
Irrep              :   0
Energy             :  -685.8262805298702460 Eh
Relativity type    :
Basis              : AO
                                X                 Y                 Z
Electronic contribution:      2.624703257      -0.191566099      -0.792057671
Nuclear contribution   :     -3.288754480      -0.343316045       0.107988848
                        -----------------------------------------
Total Dipole Moment    :     -0.664051223      -0.534882144      -0.684068823
                        -----------------------------------------
Magnitude (a.u.)       :      1.093166542
Magnitude (Debye)      :      2.778608531

Rotational constants in cm-1:             0.039159             0.027062             0.017859
Rotational constants in MHz :          1173.964046           811.299637           535.406946

                             ****ORCA TERMINATED NORMALLY****
TOTAL RUN TIME: 0 days 0 hours 0 minutes 11 seconds 803 msec
