                         Program Version 6.0.0  -   RELEASE  -
|  1> ! pbe def2-sv(p) def2/J RI DEFGRID1 loosescf d4 GCP(DFT/SV(P)) printgap
|  2> %output
|  3>     printlevel normal
|  4> end
|  5> * xyz 0 1
|  6> C -2.4041482984 -1.1440407528 -0.2823861668
|  7> C -1.0604452694 -0.6205779527 0.2522855875
|  8> H -1.0703044162 -0.5972258951 1.3554770247
|  9> C -0.7671730593 0.8002379415 -0.2546990113
| 10> H -0.8008344369 0.7943171069 -1.3562184353
| 11> C 0.6402949947 1.2479766796 0.1717805289
| 12> H 0.6534062701 1.388587388 1.2638884116
| 13> C 1.6857971704 0.1899193404 -0.1858858488
| 14> H 1.8109229088 0.1781718732 -1.2775031059
| 15> C 1.2224808486 -1.2079457749 0.2663474171
| 16> H 1.2270091882 -1.2258979725 1.3780640593
| 17> O -0.0702831529 -1.5235555734 -0.1942715205
| 18> O 2.1049158274 -2.1329741879 -0.253174269
| 19> O 2.8872826597 0.5231504053 0.4569037846
| 20> O 0.9925200831 2.4446529713 -0.4732119186
| 21> O -1.6710349479 1.742969488 0.2650384255
| 22> O -3.4966962639 -0.3820784684 0.1650546705
| 23> H -2.5005817491 -2.1985559393 -0.0077054249
| 24> H -2.3971764768 -1.0730383297 -1.3724253966
| 25> H 1.7447378784 -3.0275827946 -0.146959605
| 26> H 3.5776744756 -0.0936257663 0.170305479
| 27> H 0.3190759169 3.109618921 -0.262576413
| 28> H -2.5774618768 1.4299300167 0.0921483919
| 29> H -3.6981263509 -0.6025336088 1.0858198238
| 30> *
| 31>
| 32>                          ****END OF INPUT****

CARTESIAN COORDINATES (ANGSTROEM)
---------------------------------
  C     -2.404148   -1.144041   -0.282386
  C     -1.060445   -0.620578    0.252286
  H     -1.070304   -0.597226    1.355477
  C     -0.767173    0.800238   -0.254699
  H     -0.800834    0.794317   -1.356218
  C      0.640295    1.247977    0.171781
  H      0.653406    1.388587    1.263888
  C      1.685797    0.189919   -0.185886
  H      1.810923    0.178172   -1.277503
  C      1.222481   -1.207946    0.266347
  H      1.227009   -1.225898    1.378064
  O     -0.070283   -1.523556   -0.194272
  O      2.104916   -2.132974   -0.253174
  O      2.887283    0.523150    0.456904
  O      0.992520    2.444653   -0.473212
  O     -1.671035    1.742969    0.265038
  O     -3.496696   -0.382078    0.165055
  H     -2.500582   -2.198556   -0.007705
  H     -2.397176   -1.073038   -1.372425
  H      1.744738   -3.027583   -0.146960
  H      3.577674   -0.093626    0.170305
  H      0.319076    3.109619   -0.262576
  H     -2.577462    1.429930    0.092148
  H     -3.698126   -0.602534    1.085820

 Total Charge           Charge          ....    0
 Multiplicity           Mult            ....    1
 Number of Electrons    NEL             ....   96
 Basis Dimension        Dim             ....  192

ORBITAL ENERGIES
----------------

  NO   OCC          E(Eh)            E(eV)
   0   2.0000     -18.783591      -511.1275
   1   2.0000     -18.778463      -510.9880
   2   2.0000     -18.767082      -510.6783
   3   2.0000     -18.747242      -510.1384
   4   2.0000     -18.742389      -510.0063
   5   2.0000     -18.736145      -509.8364
   6   2.0000      -9.986313      -271.7414
   7   2.0000      -9.950045      -270.7545
   8   2.0000      -9.949745      -270.7463
   9   2.0000      -9.937797      -270.4212
  10   2.0000      -9.934248      -270.3246
  11   2.0000      -9.934218      -270.3238
  12   2.0000      -0.989301       -26.9203
  13   2.0000      -0.958167       -26.0731
  14   2.0000      -0.933745       -25.4085
  15   2.0000      -0.928244       -25.2588
  16   2.0000      -0.916431       -24.9373
  17   2.0000      -0.904161       -24.6035
  18   2.0000      -0.701956       -19.1012
  19   2.0000      -0.692944       -18.8560
  20   2.0000      -0.622960       -16.9516
  21   2.0000      -0.581041       -15.8109
  22   2.0000      -0.566261       -15.4087
  23   2.0000      -0.520901       -14.1744
  24   2.0000      -0.505300       -13.7499
  25   2.0000      -0.488175       -13.2839
  26   2.0000      -0.474445       -12.9103
  27   2.0000      -0.467142       -12.7116
  28   2.0000      -0.464086       -12.6284
  29   2.0000      -0.445724       -12.1288
  30   2.0000      -0.410249       -11.1634
  31   2.0000      -0.398065       -10.8319
  32   2.0000      -0.390028       -10.6132
  33   2.0000      -0.365996        -9.9593
  34   2.0000      -0.356419        -9.6987
  35   2.0000      -0.353441        -9.6176
  36   2.0000      -0.334850        -9.1117
  37   2.0000      -0.321520        -8.7490
  38   2.0000      -0.306828        -8.3492
  39   2.0000      -0.294541        -8.0149
  40   2.0000      -0.288045        -7.8381
  41   2.0000      -0.269067        -7.3217
  42   2.0000      -0.257070        -6.9952
  43   2.0000      -0.244503        -6.6533
  44   2.0000      -0.236552        -6.4369
  45   2.0000      -0.218092        -5.9346
  46   2.0000      -0.214176        -5.8280
  47   2.0000      -0.197758        -5.3813
  48   0.0000       0.002177         0.0592
  49   0.0000       0.026510         0.7214
  50   0.0000       0.032005         0.8709
  51   0.0000       0.052063         1.4167
  52   0.0000       0.060630         1.6498

MULLIKEN ATOMIC CHARGES
-----------------------
   0 C :    0.074505
   1 C :   -0.017069
   2 H :    0.042977
   3 C :    0.035046
   4 H :    0.053154
   5 C :    0.105205
   6 H :    0.054507
   7 C :    0.051840
   8 H :    0.062084
   9 C :    0.174909
  10 H :    0.035317
  11 O :   -0.312246
  12 O :   -0.386894
  13 O :   -0.408306
  14 O :   -0.410497
  15 O :   -0.437099
  16 O :   -0.435605
  17 H :    0.093131
  18 H :    0.093218
  19 H :    0.308876
  20 H :    0.304738
  21 H :    0.304928
  22 H :    0.302160
  23 H :    0.311121
Sum of atomic charges:   -0.0000000

LOEWDIN ATOMIC CHARGES
----------------------
   0 C :   -0.126360
   1 C :   -0.081354
   2 H :    0.096051
   3 C :   -0.079042
   4 H :    0.102789
   5 C :   -0.060190
   6 H :    0.106340
   7 C :   -0.075030
   8 H :    0.111272
   9 C :   -0.005131
  10 H :    0.079061
  11 O :   -0.154084
  12 O :   -0.299615
  13 O :   -0.310686
  14 O :   -0.314688
  15 O :   -0.332816
  16 O :   -0.317864
  17 H :    0.106500
  18 H :    0.120544
  19 H :    0.291505
  20 H :    0.288499
  21 H :    0.287287
  22 H :    0.273606
  23 H :    0.293406

  Mayer bond orders larger than 0.100000
B(  0-C ,  1-C ) :   1.0221 B(  0-C , 16-O ) :   1.0383 B(  0-C , 17-H ) :   0.9247
B(  0-C , 18-H ) :   0.9135 B(  1-C ,  2-H ) :   0.8745 B(  1-C ,  3-C ) :   0.9922
B(  1-C , 11-O ) :   0.9873 B(  3-C ,  4-H ) :   0.8706 B(  3-C ,  5-C ) :   1.0070
B(  3-C , 15-O ) :   1.0843 B(  5-C ,  6-H ) :   0.8740 B(  5-C ,  7-C ) :   1.0096
B(  5-C , 14-O ) :   1.1027 B(  7-C ,  8-H ) :   0.8666 B(  7-C ,  9-C ) :   0.9949
B(  7-C , 13-O ) :   1.0851 B(  9-C , 10-H ) :   0.8827 B(  9-C , 11-O ) :   1.0003
B(  9-C , 12-O ) :   1.1671 B( 12-O , 19-H ) :   0.8381 B( 13-O , 20-H ) :   0.8432
B( 14-O , 21-H ) :   0.8401 B( 15-O , 22-H ) :   0.8035 B( 16-O , 22-H ) :   0.1090
B( 16-O , 23-H ) :   0.8426

Dispersion correction           -0.023757799
FINAL SINGLE POINT ENERGY      -685.701448848304

DIPOLE MOMENT
-------------

Method             : SCF
Type of density    : Electron Density
Multiplicity       :   1
Irrep              :   0
Energy             :  -685.8320379963960249 Eh
Relativity type    :
Basis              : AO
                                X                 Y                 Z
Electronic contribution:      2.491004890       0.521773091      -0.348740682
Nuclear contribution   :     -3.471105208      -1.789297712       0.864789526
                        -----------------------------------------
Total Dipole Moment    :     -0.980100318      -1.267524620       0.516048843
                        -----------------------------------------
Magnitude (a.u.)       :      1.683306777
Magnitude (Debye)      :      4.278625800

Rotational constants in cm-1:             0.043922             0.024452             0.016517
Rotational constants in MHz :          1316.747530           733.037793           495.163868

                             ****ORCA TERMINATED NORMALLY****
TOTAL RUN TIME: 0 days 0 hours 0 minutes 11 seconds 996 msec
