                         Program Version 6.0.0  -   RELEASE  -
|  1> ! r2scan-3c def2/J RI DEFGRID2 scfconv6 printgap
|  2> %output
|  3>     printlevel normal
|  4> end
|  5> * xyz 0 1
|  6> C -2.9021063611 -0.0581768893 0.0020669198
|  7> O -1.6630325285 0.6638750976 0.0011648653
|  8> C -0.5459191365 -0.0437672365 -0.0014672468
|  9> O -0.5020252359 -1.2504330196 -0.0023198159
| 10> C 0.6529719979 0.8822372246 -0.0037748422
| 11> Cl 2.1607706234 -0.0662450259 0.0017744209
| 12> H -3.6776561542 0.7007276647 0.0033158162
| 13> H -2.965723183 -0.687800107 0.8896493067
| 14> H -2.9675444503 -0.6868045794 -0.8861061339
| 15> H 0.6398293994 1.5121519413 0.8852469563
| 16> H 0.641854028 1.5043867259 -0.8983501533
| 17> *
| 18>
| 19>                          ****END OF INPUT****

CARTESIAN COORDINATES (ANGSTROEM)
---------------------------------
  C     -2.902106   -0.058177    0.002067
  O     -1.663033    0.663875    0.001165
  C     -0.545919   -0.043767   -0.001467
  O     -0.502025   -1.250433   -0.002320
  C      0.652972    0.882237   -0.003775
  Cl     2.160771   -0.066245    0.001774
  H     -3.677656    0.700728    0.003316
  H     -2.965723   -0.687800    0.889649
  H     -2.967544   -0.686805   -0.886106
  H      0.639829    1.512152    0.885247
  H      0.641854    1.504387   -0.898350

 Total Charge           Charge          ....    0
 Multiplicity           Mult            ....    1
 Number of Electrons    NEL             ....   56
 Basis Dimension        Dim             ....  157

ORBITAL ENERGIES
----------------

  NO   OCC          E(Eh)            E(eV)
   0   2.0000    -101.209992     -2754.0639
   1   2.0000     -19.018228      -517.5123
   2   2.0000     -18.946837      -515.5696
   3   2.0000     -10.173519      -276.8355
   4   2.0000     -10.114492      -275.2293
   5   2.0000     -10.100982      -274.8617
   6   2.0000      -9.365680      -254.8531
   7   2.0000      -7.112527      -193.5417
   8   2.0000      -7.101460      -193.2406
   9   2.0000      -7.101368      -193.2380
  10   2.0000      -1.093269       -29.7494
  11   2.0000      -0.996263       -27.1097
  12   2.0000      -0.830500       -22.5990
  13   2.0000      -0.735132       -20.0040
  14   2.0000      -0.660661       -17.9775
  15   2.0000      -0.549829       -14.9616
  16   2.0000      -0.493606       -13.4317
  17   2.0000      -0.481830       -13.1113
  18   2.0000      -0.457715       -12.4551
  19   2.0000      -0.436948       -11.8900
  20   2.0000      -0.407075       -11.0771
  21   2.0000      -0.393728       -10.7139
  22   2.0000      -0.365610        -9.9488
  23   2.0000      -0.342351        -9.3159
  24   2.0000      -0.292951        -7.9716
  25   2.0000      -0.275278        -7.4907
  26   2.0000      -0.273215        -7.4346
  27   2.0000      -0.256055        -6.9676
  28   0.0000      -0.031417        -0.8549
  29   0.0000      -0.005598        -0.1523
  30   0.0000       0.061596         1.6761
  31   0.0000       0.080964         2.2031
  32   0.0000       0.109686         2.9847

MULLIKEN ATOMIC CHARGES
-----------------------
   0 C :   -0.284970
   1 O :   -0.185612
   2 C :    0.348346
   3 O :   -0.399586
   4 C :   -0.183873
   5 Cl:   -0.138569
   6 H :    0.154750
   7 H :    0.164724
   8 H :    0.164703
   9 H :    0.180016
  10 H :    0.180070
Sum of atomic charges:   -0.0000000

LOEWDIN ATOMIC CHARGES
----------------------
   0 C :   -0.037818
   1 O :   -0.599016
   2 C :    0.328378
   3 O :   -0.409939
   4 C :   -0.260943
   5 Cl:    0.077334
   6 H :    0.178711
   7 H :    0.178936
   8 H :    0.178938
   9 H :    0.182688
  10 H :    0.182732

  Mayer bond orders larger than 0.100000
B(  0-C ,  1-O ) :   0.8451 B(  0-C ,  6-H ) :   0.9682 B(  0-C ,  7-H ) :   0.9600
B(  0-C ,  8-H ) :   0.9600 B(  1-O ,  2-C ) :   1.0661 B(  2-C ,  3-O ) :   1.8444
B(  2-C ,  4-C ) :   1.0067 B(  4-C ,  5-Cl) :   1.0508 B(  4-C ,  9-H ) :   0.9349
B(  4-C , 10-H ) :   0.9343

Dispersion correction           -0.002553517
FINAL SINGLE POINT ENERGY      -727.903424900987

DIPOLE MOMENT
-------------

Method             : SCF
Type of density    : Electron Density
Multiplicity       :   1
Irrep              :   0
Energy             :  -727.9112613654206143 Eh
Relativity type    :
Basis              : AO
                                X                 Y                 Z
Electronic contribution:      9.672128904      -1.332745100       0.006681145
Nuclear contribution   :    -10.746512126       2.278051694      -0.008256871
                        -----------------------------------------
Total Dipole Moment    :     -1.074383222       0.945306594      -0.001575726
                        -----------------------------------------
Magnitude (a.u.)       :      1.431050784
Magnitude (Debye)      :      3.637442021

Rotational constants in cm-1:             0.331442             0.046949             0.041774
Rotational constants in MHz :          9936.376933          1407.487336          1252.364562

                             ****ORCA TERMINATED NORMALLY****
TOTAL RUN TIME: 0 days 0 hours 0 minutes 15 seconds 21 msec
