                         Program Version 6.0.0  -   RELEASE  -
|  1> ! r2scan-3c def2/J RI DEFGRID2 scfconv6 printgap
|  2> %output
|  3>     printlevel normal
|  4> end
|  5> %cpcm
|  6>     smd true
|  7>     smdsolvent "water"
|  8> end
|  9> * xyz 0 1
| 10> C -2.9021063611 -0.0581768893 0.0020669198
| 11> O -1.6630325285 0.6638750976 0.0011648653
| 12> C -0.5459191365 -0.0437672365 -0.0014672468
| 13> O -0.5020252359 -1.2504330196 -0.0023198159
| 14> C 0.6529719979 0.8822372246 -0.0037748422
| 15> Cl 2.1607706234 -0.0662450259 0.0017744209
| 16> H -3.6776561542 0.7007276647 0.0033158162
| 17> H -2.965723183 -0.687800107 0.8896493067
| 18> H -2.9675444503 -0.6868045794 -0.8861061339
| 19> H 0.6398293994 1.5121519413 0.8852469563
| 20> H 0.641854028 1.5043867259 -0.8983501533
| 21> *
| 22>
| 23>                          ****END OF INPUT****

CARTESIAN COORDINATES (ANGSTROEM)
---------------------------------
  C     -2.902106   -0.058177    0.002067
  O     -1.663033    0.663875    0.001165
  C     -0.545919   -0.043767   -0.001467
  O     -0.502025   -1.250433   -0.002320
  C      0.652972    0.882237   -0.003775
  Cl     2.160771   -0.066245    0.001774
  H     -3.677656    0.700728    0.003316
  H     -2.965723   -0.687800    0.889649
  H     -2.967544   -0.686805   -0.886106
  H      0.639829    1.512152    0.885247
  H      0.641854    1.504387   -0.898350

 Total Charge           Charge          ....    0
 Multiplicity           Mult            ....    1
 Number of Electrons    NEL             ....   56
 Basis Dimension        Dim             ....  157

ORBITAL ENERGIES
----------------

  NO   OCC          E(Eh)            E(eV)
   0   2.0000    -101.214139     -2754.1768
   1   2.0000     -19.013685      -517.3887
   2   2.0000     -18.954304      -515.7728
   3   2.0000     -10.176979      -276.9297
   4   2.0000     -10.103757      -274.9372
   5   2.0000     -10.081006      -274.3181
   6   2.0000      -9.370051      -254.9720
   7   2.0000      -7.116500      -193.6498
   8   2.0000      -7.105973      -193.3634
   9   2.0000      -7.105970      -193.3633
  10   2.0000      -1.090849       -29.6835
  11   2.0000      -1.001215       -27.2445
  12   2.0000      -0.830251       -22.5923
  13   2.0000      -0.725794       -19.7499
  14   2.0000      -0.650549       -17.7023
  15   2.0000      -0.539697       -14.6859
  16   2.0000      -0.488555       -13.2943
  17   2.0000      -0.473215       -12.8768
  18   2.0000      -0.461680       -12.5630
  19   2.0000      -0.422115       -11.4863
  20   2.0000      -0.404691       -11.0122
  21   2.0000      -0.388023       -10.5586
  22   2.0000      -0.361314        -9.8318
  23   2.0000      -0.334140        -9.0924
  24   2.0000      -0.291626        -7.9356
  25   2.0000      -0.281307        -7.6547
  26   2.0000      -0.275320        -7.4918
  27   2.0000      -0.265470        -7.2238
  28   0.0000      -0.031032        -0.8444
  29   0.0000      -0.002601        -0.0708
  30   0.0000       0.073266         1.9937
  31   0.0000       0.097734         2.6595
  32   0.0000       0.129684         3.5289

MULLIKEN ATOMIC CHARGES
-----------------------
   0 C :   -0.321571
   1 O :   -0.188388
   2 C :    0.398305
   3 O :   -0.486978
   4 C :   -0.201584
   5 Cl:   -0.189153
   6 H :    0.182190
   7 H :    0.181606
   8 H :    0.181590
   9 H :    0.221883
  10 H :    0.222102
Sum of atomic charges:   -0.0000000

LOEWDIN ATOMIC CHARGES
----------------------
   0 C :   -0.034814
   1 O :   -0.591297
   2 C :    0.342333
   3 O :   -0.473483
   4 C :   -0.250111
   5 Cl:    0.046857
   6 H :    0.190617
   7 H :    0.184455
   8 H :    0.184463
   9 H :    0.200445
  10 H :    0.200536

  Mayer bond orders larger than 0.100000
B(  0-C ,  1-O ) :   0.8241 B(  0-C ,  6-H ) :   0.9582 B(  0-C ,  7-H ) :   0.9549
B(  0-C ,  8-H ) :   0.9549 B(  1-O ,  2-C ) :   1.1085 B(  2-C ,  3-O ) :   1.7916
B(  2-C ,  4-C ) :   1.0126 B(  4-C ,  5-Cl) :   0.9972 B(  4-C ,  9-H ) :   0.9204
B(  4-C , 10-H ) :   0.9198

Dispersion correction           -0.002553517
FINAL SINGLE POINT ENERGY      -727.912449569602

DIPOLE MOMENT
-------------

Method             : SCF
Type of density    : Electron Density
Multiplicity       :   1
Irrep              :   0
Energy             :  -727.9202860340351435 Eh
Relativity type    :
Basis              : AO
                                X                 Y                 Z
Electronic contribution:      9.379063390      -0.859600233       0.005845222
Nuclear contribution   :    -10.746512126       2.278051694      -0.008256871
                        -----------------------------------------
Total Dipole Moment    :     -1.367448736       1.418451461      -0.002411649
                        -----------------------------------------
Magnitude (a.u.)       :      1.970260493
Magnitude (Debye)      :      5.008004180

Rotational constants in cm-1:             0.331442             0.046949             0.041774
Rotational constants in MHz :          9936.376933          1407.487336          1252.364562

                             ****ORCA TERMINATED NORMALLY****
TOTAL RUN TIME: 0 days 0 hours 0 minutes 17 seconds 525 msec
