                         Program Version 6.0.0  -   RELEASE  -
|  1> ! pbe def2-sv(p) def2/J RI DEFGRID1 loosescf d4 GCP(DFT/SV(P)) printgap
|  2> %output
|  3>     printlevel normal
|  4> end
|  5> * xyz 0 1
|  6> C -2.3831943407 -1.1710871454 -0.3312765875
|  7> C -1.0751271119 -0.6244325533 0.2500111658
|  8> H -1.1429314687 -0.6006605367 1.3503013054
|  9> C -0.7774429641 0.7994035902 -0.2436990997
| 10> H -0.8089029238 0.8082921069 -1.3454641464
| 11> C 0.6288065968 1.2327192714 0.2005695077
| 12> H 0.6184310564 1.3257747769 1.3011782282
| 13> C 1.6785173407 0.1872595985 -0.1971501922
| 14> H 1.7607473032 0.1461384631 -1.2874392567
| 15> C 1.2272038403 -1.1993078478 0.3077549902
| 16> H 1.2135239709 -1.185287432 1.4211125991
| 17> O -0.0647582764 -1.5240202335 -0.1567172104
| 18> O 2.0992298604 -2.1531892762 -0.1668679474
| 19> O 2.9598358416 0.5103288138 0.2586604464
| 20> O 0.9796670031 2.4639063954 -0.3755236108
| 21> O -1.6737076401 1.7459489514 0.2838522375
| 22> O -3.4533950785 -0.3652281735 0.1032153569
| 23> H -2.4965384922 -2.2057820539 0.010084252
| 24> H -2.2994615046 -1.1673746274 -1.4247270533
| 25> H 1.7216217435 -3.037379859 -0.0314671296
| 26> H 2.9488213458 0.6549535244 1.2166949526
| 27> H 0.2596938894 3.0912079996 -0.2055179367
| 28> H -2.575114668 1.3814395221 0.2359063788
| 29> H -4.2865912837 -0.7289982994 -0.2289607362
| 30> *
| 31>
| 32>                          ****END OF INPUT****

CARTESIAN COORDINATES (ANGSTROEM)
---------------------------------
  C     -2.383194   -1.171087   -0.331277
  C     -1.075127   -0.624433    0.250011
  H     -1.142931   -0.600661    1.350301
  C     -0.777443    0.799404   -0.243699
  H     -0.808903    0.808292   -1.345464
  C      0.628807    1.232719    0.200570
  H      0.618431    1.325775    1.301178
  C      1.678517    0.187260   -0.197150
  H      1.760747    0.146138   -1.287439
  C      1.227204   -1.199308    0.307755
  H      1.213524   -1.185287    1.421113
  O     -0.064758   -1.524020   -0.156717
  O      2.099230   -2.153189   -0.166868
  O      2.959836    0.510329    0.258660
  O      0.979667    2.463906   -0.375524
  O     -1.673708    1.745949    0.283852
  O     -3.453395   -0.365228    0.103215
  H     -2.496538   -2.205782    0.010084
  H     -2.299462   -1.167375   -1.424727
  H      1.721622   -3.037380   -0.031467
  H      2.948821    0.654954    1.216695
  H      0.259694    3.091208   -0.205518
  H     -2.575115    1.381440    0.235906
  H     -4.286591   -0.728998   -0.228961

 Total Charge           Charge          ....    0
 Multiplicity           Mult            ....    1
 Number of Electrons    NEL             ....   96
 Basis Dimension        Dim             ....  192

ORBITAL ENERGIES
----------------

  NO   OCC          E(Eh)            E(eV)
   0   2.0000     -18.787186      -511.2253
   1   2.0000     -18.778087      -510.9777
   2   2.0000     -18.756445      -510.3888
   3   2.0000     -18.745595      -510.0936
   4   2.0000     -18.739919      -509.9391
   5   2.0000     -18.738688      -509.9056
   6   2.0000      -9.986080      -271.7350
   7   2.0000      -9.952420      -270.8191
   8   2.0000      -9.952320      -270.8164
   9   2.0000      -9.938845      -270.4497
  10   2.0000      -9.936134      -270.3759
  11   2.0000      -9.933060      -270.2923
  12   2.0000      -0.985946       -26.8289
  13   2.0000      -0.959479       -26.1087
  14   2.0000      -0.934743       -25.4356
  15   2.0000      -0.925101       -25.1733
  16   2.0000      -0.913403       -24.8550
  17   2.0000      -0.904358       -24.6088
  18   2.0000      -0.704854       -19.1800
  19   2.0000      -0.692510       -18.8442
  20   2.0000      -0.623340       -16.9619
  21   2.0000      -0.575477       -15.6595
  22   2.0000      -0.560621       -15.2553
  23   2.0000      -0.533226       -14.5098
  24   2.0000      -0.511470       -13.9178
  25   2.0000      -0.487748       -13.2723
  26   2.0000      -0.482024       -13.1165
  27   2.0000      -0.462650       -12.5893
  28   2.0000      -0.450880       -12.2691
  29   2.0000      -0.439536       -11.9604
  30   2.0000      -0.413970       -11.2647
  31   2.0000      -0.407055       -11.0765
  32   2.0000      -0.386902       -10.5281
  33   2.0000      -0.376357       -10.2412
  34   2.0000      -0.355540        -9.6747
  35   2.0000      -0.341321        -9.2878
  36   2.0000      -0.334813        -9.1107
  37   2.0000      -0.327119        -8.9014
  38   2.0000      -0.304193        -8.2775
  39   2.0000      -0.292308        -7.9541
  40   2.0000      -0.285230        -7.7615
  41   2.0000      -0.262875        -7.1532
  42   2.0000      -0.250075        -6.8049
  43   2.0000      -0.245287        -6.6746
  44   2.0000      -0.236171        -6.4265
  45   2.0000      -0.222883        -6.0650
  46   2.0000      -0.211735        -5.7616
  47   2.0000      -0.195700        -5.3253
  48   0.0000      -0.002532        -0.0689
  49   0.0000       0.026130         0.7110
  50   0.0000       0.037453         1.0191
  51   0.0000       0.044353         1.2069
  52   0.0000       0.059542         1.6202

MULLIKEN ATOMIC CHARGES
-----------------------
   0 C :    0.073366
   1 C :   -0.010984
   2 H :    0.061066
   3 C :    0.035073
   4 H :    0.052024
   5 C :    0.075017
   6 H :    0.030752
   7 C :    0.083890
   8 H :    0.071299
   9 C :    0.183909
  10 H :    0.013973
  11 O :   -0.316547
  12 O :   -0.364430
  13 O :   -0.399668
  14 O :   -0.406120
  15 O :   -0.437616
  16 O :   -0.445264
  17 H :    0.088525
  18 H :    0.080572
  19 H :    0.303289
  20 H :    0.294162
  21 H :    0.306967
  22 H :    0.307580
  23 H :    0.319166
Sum of atomic charges:   -0.0000000

LOEWDIN ATOMIC CHARGES
----------------------
   0 C :   -0.122620
   1 C :   -0.068637
   2 H :    0.104597
   3 C :   -0.078819
   4 H :    0.103129
   5 C :   -0.073743
   6 H :    0.092967
   7 C :   -0.076637
   8 H :    0.126563
   9 C :   -0.001278
  10 H :    0.069323
  11 O :   -0.153521
  12 O :   -0.287126
  13 O :   -0.296626
  14 O :   -0.315272
  15 O :   -0.334465
  16 O :   -0.330288
  17 H :    0.105707
  18 H :    0.104313
  19 H :    0.288242
  20 H :    0.282987
  21 H :    0.287368
  22 H :    0.275774
  23 H :    0.298063

  Mayer bond orders larger than 0.100000
B(  0-C ,  1-C ) :   1.0580 B(  0-C , 16-O ) :   1.0479 B(  0-C , 17-H ) :   0.9182
B(  0-C , 18-H ) :   0.9078 B(  1-C ,  2-H ) :   0.8747 B(  1-C ,  3-C ) :   1.0066
B(  1-C , 11-O ) :   0.9973 B(  3-C ,  4-H ) :   0.8689 B(  3-C ,  5-C ) :   1.0077
B(  3-C , 15-O ) :   1.0764 B(  5-C ,  6-H ) :   0.8664 B(  5-C ,  7-C ) :   0.9967
B(  5-C , 14-O ) :   1.1113 B(  7-C ,  8-H ) :   0.8587 B(  7-C ,  9-C ) :   0.9658
B(  7-C , 13-O ) :   1.0567 B(  9-C , 10-H ) :   0.8771 B(  9-C , 11-O ) :   0.9897
B(  9-C , 12-O ) :   1.1984 B( 12-O , 19-H ) :   0.8405 B( 13-O , 20-H ) :   0.8486
B( 14-O , 21-H ) :   0.8377 B( 15-O , 22-H ) :   0.8033 B( 16-O , 22-H ) :   0.1037
B( 16-O , 23-H ) :   0.8404

Dispersion correction           -0.023774021
FINAL SINGLE POINT ENERGY      -685.696730279122

DIPOLE MOMENT
-------------

Method             : SCF
Type of density    : Electron Density
Multiplicity       :   1
Irrep              :   0
Energy             :  -685.8270120144310340 Eh
Relativity type    :
Basis              : AO
                                X                 Y                 Z
Electronic contribution:      2.839058752       0.422092497      -0.453946414
Nuclear contribution   :     -4.759644934      -1.413798192       0.948357267
                        -----------------------------------------
Total Dipole Moment    :     -1.920586181      -0.991705695       0.494410853
                        -----------------------------------------
Magnitude (a.u.)       :      2.217334787
Magnitude (Debye)      :      5.636017126

Rotational constants in cm-1:             0.043916             0.024553             0.016461
Rotational constants in MHz :          1316.553956           736.071043           493.498595

                             ****ORCA TERMINATED NORMALLY****
TOTAL RUN TIME: 0 days 0 hours 0 minutes 11 seconds 652 msec
