                         Program Version 6.0.0  -   RELEASE  -
|  1> ! pbe def2-sv(p) def2/J RI DEFGRID1 loosescf d4 GCP(DFT/SV(P)) printgap
|  2> %output
|  3>     printlevel normal
|  4> end
|  5> * xyz 0 1
|  6> C 1.8139192086 0.0072985728 0.9992158548
|  7> C 0.9787897004 -0.3423278938 -0.2306011636
|  8> H 1.0552280124 -1.4120412233 -0.4532896931
|  9> C -0.506353948 -0.0904434756 0.0728467484
| 10> F -1.2926241956 -0.3478483165 -0.9899188938
| 11> F -0.9625845699 -0.8778312427 1.0667233046
| 12> F -0.7707004544 1.1702818109 0.4397485581
| 13> O 1.3296761177 0.4606852393 -1.3277300051
| 14> H 2.8564978411 -0.2099023669 0.7920893264
| 15> H 1.4833627623 -0.574072626 1.8544579971
| 16> H 1.7124677522 1.0673646625 1.2165343386
| 17> H 1.5760999433 -0.0698112876 -2.097574662
| 18> *
| 19>
| 20>                          ****END OF INPUT****

CARTESIAN COORDINATES (ANGSTROEM)
---------------------------------
  C      1.813919    0.007299    0.999216
  C      0.978790   -0.342328   -0.230601
  H      1.055228   -1.412041   -0.453290
  C     -0.506354   -0.090443    0.072847
  F     -1.292624   -0.347848   -0.989919
  F     -0.962585   -0.877831    1.066723
  F     -0.770700    1.170282    0.439749
  O      1.329676    0.460685   -1.327730
  H      2.856498   -0.209902    0.792089
  H      1.483363   -0.574073    1.854458
  H      1.712468    1.067365    1.216534
  H      1.576100   -0.069811   -2.097575

 Total Charge           Charge          ....    0
 Multiplicity           Mult            ....    1
 Number of Electrons    NEL             ....   58
 Basis Dimension        Dim             ....  108

ORBITAL ENERGIES
----------------

  NO   OCC          E(Eh)            E(eV)
   0   2.0000     -24.281002      -660.7197
   1   2.0000     -24.279765      -660.6860
   2   2.0000     -24.275717      -660.5759
   3   2.0000     -18.770822      -510.7800
   4   2.0000     -10.112622      -275.1784
   5   2.0000      -9.969792      -271.2918
   6   2.0000      -9.890828      -269.1431
   7   2.0000      -1.182960       -32.1900
   8   2.0000      -1.090795       -29.6820
   9   2.0000      -1.087541       -29.5935
  10   2.0000      -0.948471       -25.8092
  11   2.0000      -0.714296       -19.4370
  12   2.0000      -0.624598       -16.9962
  13   2.0000      -0.569072       -15.4852
  14   2.0000      -0.528301       -14.3758
  15   2.0000      -0.516114       -14.0442
  16   2.0000      -0.498101       -13.5540
  17   2.0000      -0.477652       -12.9976
  18   2.0000      -0.395831       -10.7711
  19   2.0000      -0.391806       -10.6616
  20   2.0000      -0.385070       -10.4783
  21   2.0000      -0.371548       -10.1103
  22   2.0000      -0.359251        -9.7757
  23   2.0000      -0.348842        -9.4925
  24   2.0000      -0.345609        -9.4045
  25   2.0000      -0.328861        -8.9488
  26   2.0000      -0.325721        -8.8633
  27   2.0000      -0.298239        -8.1155
  28   2.0000      -0.241579        -6.5737
  29   0.0000       0.004795         0.1305
  30   0.0000       0.058240         1.5848
  31   0.0000       0.083853         2.2818
  32   0.0000       0.097064         2.6412
  33   0.0000       0.107332         2.9207

MULLIKEN ATOMIC CHARGES
-----------------------
   0 C :   -0.248055
   1 C :   -0.065946
   2 H :    0.091382
   3 C :    0.409751
   4 F :   -0.147504
   5 F :   -0.148867
   6 F :   -0.137670
   7 O :   -0.412862
   8 H :    0.110072
   9 H :    0.113984
  10 H :    0.121523
  11 H :    0.314191
Sum of atomic charges:    0.0000000

LOEWDIN ATOMIC CHARGES
----------------------
   0 C :   -0.346359
   1 C :   -0.097845
   2 H :    0.119307
   3 C :    0.101349
   4 F :   -0.053941
   5 F :   -0.055873
   6 F :   -0.040677
   7 O :   -0.313891
   8 H :    0.127299
   9 H :    0.129831
  10 H :    0.132228
  11 H :    0.298574

  Mayer bond orders larger than 0.100000
B(  0-C ,  1-C ) :   1.0861 B(  0-C ,  8-H ) :   0.9421 B(  0-C ,  9-H ) :   0.9378
B(  0-C , 10-H ) :   0.9406 B(  1-C ,  2-H ) :   0.8975 B(  1-C ,  3-C ) :   0.9415
B(  1-C ,  7-O ) :   1.0815 B(  3-C ,  4-F ) :   1.1684 B(  3-C ,  5-F ) :   1.1400
B(  3-C ,  6-F ) :   1.1651 B(  7-O , 11-H ) :   0.8461

Dispersion correction           -0.008152049
FINAL SINGLE POINT ENERGY      -491.113433009161

DIPOLE MOMENT
-------------

Method             : SCF
Type of density    : Electron Density
Multiplicity       :   1
Irrep              :   0
Energy             :  -491.1837278076834536 Eh
Relativity type    :
Basis              : AO
                                X                 Y                 Z
Electronic contribution:    -10.106720085       0.402589750      -1.025044682
Nuclear contribution   :     10.970043244      -1.066222608       0.732840736
                        -----------------------------------------
Total Dipole Moment    :      0.863323159      -0.663632858      -0.292203946
                        -----------------------------------------
Magnitude (a.u.)       :      1.127438953
Magnitude (Debye)      :      2.865722077

Rotational constants in cm-1:             0.117250             0.079862             0.065310
Rotational constants in MHz :          3515.080420          2394.204881          1957.948090

                             ****ORCA TERMINATED NORMALLY****
TOTAL RUN TIME: 0 days 0 hours 0 minutes 5 seconds 925 msec
