                         Program Version 6.0.0  -   RELEASE  -
|  1> ! pbe def2-sv(p) def2/J RI DEFGRID1 loosescf d4 GCP(DFT/SV(P)) printgap
|  2> %output
|  3>     printlevel normal
|  4> end
|  5> * xyz 0 1
|  6> C -2.4362359666 1.0540823128 -0.4481409115
|  7> C -1.7020555349 -0.2811311141 -0.2923420245
|  8> C -2.3140260154 -1.0512297489 0.8820397266
|  9> C -0.201666911 -0.1040849909 -0.1481156785
| 10> C 0.5734239276 -1.0412476373 0.5292375278
| 11> C 1.9443672666 -0.8930959033 0.6457765327
| 12> C 2.580931485 0.1980646904 0.0821379885
| 13> C 1.8277798842 1.1330544613 -0.6047784371
| 14> C 0.4568605514 0.9813525274 -0.7187506527
| 15> H -2.1970021321 1.536238433 -1.3916202029
| 16> H -2.1775639697 1.7263391166 0.3668653232
| 17> H -3.510603422 0.8868153219 -0.4283971541
| 18> H -1.8722173432 -0.8678763428 -1.2055424299
| 19> H -2.0401307235 -0.5841269404 1.825433783
| 20> H -1.9893821025 -2.0876699576 0.8955625725
| 21> H -3.3982918872 -1.0480135463 0.7983063153
| 22> H 0.1131472006 -1.9071728866 0.9768277079
| 23> H 2.5172918046 -1.6365559184 1.1807561643
| 24> H 3.6502897896 0.3164087107 0.1738209088
| 25> H 2.308499034 1.9882956353 -1.0571171097
| 26> H -0.0959376364 1.7277910605 -1.2657288587
| 27> *
| 28>
| 29>                          ****END OF INPUT****

CARTESIAN COORDINATES (ANGSTROEM)
---------------------------------
  C     -2.436236    1.054082   -0.448141
  C     -1.702056   -0.281131   -0.292342
  C     -2.314026   -1.051230    0.882040
  C     -0.201667   -0.104085   -0.148116
  C      0.573424   -1.041248    0.529238
  C      1.944367   -0.893096    0.645777
  C      2.580931    0.198065    0.082138
  C      1.827780    1.133054   -0.604778
  C      0.456861    0.981353   -0.718751
  H     -2.197002    1.536238   -1.391620
  H     -2.177564    1.726339    0.366865
  H     -3.510603    0.886815   -0.428397
  H     -1.872217   -0.867876   -1.205542
  H     -2.040131   -0.584127    1.825434
  H     -1.989382   -2.087670    0.895563
  H     -3.398292   -1.048014    0.798306
  H      0.113147   -1.907173    0.976828
  H      2.517292   -1.636556    1.180756
  H      3.650290    0.316409    0.173821
  H      2.308499    1.988296   -1.057117
  H     -0.095938    1.727791   -1.265729

 Total Charge           Charge          ....    0
 Multiplicity           Mult            ....    1
 Number of Electrons    NEL             ....   66
 Basis Dimension        Dim             ....  150

ORBITAL ENERGIES
----------------

  NO   OCC          E(Eh)            E(eV)
   0   2.0000      -9.902259      -269.4542
   1   2.0000      -9.899044      -269.3667
   2   2.0000      -9.886150      -269.0158
   3   2.0000      -9.886118      -269.0150
   4   2.0000      -9.884980      -268.9840
   5   2.0000      -9.884964      -268.9836
   6   2.0000      -9.884430      -268.9690
   7   2.0000      -9.875987      -268.7393
   8   2.0000      -9.875930      -268.7377
   9   2.0000      -0.775912       -21.1136
  10   2.0000      -0.723644       -19.6914
  11   2.0000      -0.665599       -18.1119
  12   2.0000      -0.653056       -17.7706
  13   2.0000      -0.613587       -16.6965
  14   2.0000      -0.553076       -15.0500
  15   2.0000      -0.533111       -14.5067
  16   2.0000      -0.502182       -13.6651
  17   2.0000      -0.462111       -12.5747
  18   2.0000      -0.417478       -11.3602
  19   2.0000      -0.404968       -11.0197
  20   2.0000      -0.393694       -10.7130
  21   2.0000      -0.389078       -10.5874
  22   2.0000      -0.370555       -10.0833
  23   2.0000      -0.349076        -9.4988
  24   2.0000      -0.334143        -9.0925
  25   2.0000      -0.332249        -9.0410
  26   2.0000      -0.324810        -8.8385
  27   2.0000      -0.311481        -8.4758
  28   2.0000      -0.299979        -8.1628
  29   2.0000      -0.282599        -7.6899
  30   2.0000      -0.279611        -7.6086
  31   2.0000      -0.224221        -6.1014
  32   2.0000      -0.217069        -5.9067
  33   0.0000      -0.029848        -0.8122
  34   0.0000      -0.029618        -0.8060
  35   0.0000       0.037588         1.0228
  36   0.0000       0.056202         1.5293
  37   0.0000       0.071715         1.9515

MULLIKEN ATOMIC CHARGES
-----------------------
   0 C :   -0.255980
   1 C :   -0.147658
   2 C :   -0.257549
   3 C :    0.127804
   4 C :   -0.133903
   5 C :   -0.044216
   6 C :   -0.047517
   7 C :   -0.044080
   8 C :   -0.135139
   9 H :    0.113621
  10 H :    0.102719
  11 H :    0.098489
  12 H :    0.092047
  13 H :    0.103026
  14 H :    0.113754
  15 H :    0.098462
  16 H :    0.035356
  17 H :    0.047737
  18 H :    0.049633
  19 H :    0.047697
  20 H :    0.035696
Sum of atomic charges:   -0.0000000

LOEWDIN ATOMIC CHARGES
----------------------
   0 C :   -0.329174
   1 C :   -0.143186
   2 C :   -0.329052
   3 C :   -0.030899
   4 C :   -0.125433
   5 C :   -0.122070
   6 C :   -0.129049
   7 C :   -0.122056
   8 C :   -0.125788
   9 H :    0.118219
  10 H :    0.121882
  11 H :    0.118580
  12 H :    0.129715
  13 H :    0.121965
  14 H :    0.118131
  15 H :    0.118537
  16 H :    0.121994
  17 H :    0.121830
  18 H :    0.121919
  19 H :    0.121834
  20 H :    0.122103

  Mayer bond orders larger than 0.100000
B(  0-C ,  1-C ) :   1.1398 B(  0-C ,  9-H ) :   0.9334 B(  0-C , 10-H ) :   0.9505
B(  0-C , 11-H ) :   0.9460 B(  1-C ,  2-C ) :   1.1377 B(  1-C ,  3-C ) :   0.9970
B(  1-C , 12-H ) :   0.8726 B(  2-C , 13-H ) :   0.9507 B(  2-C , 14-H ) :   0.9339
B(  2-C , 15-H ) :   0.9461 B(  3-C ,  4-C ) :   1.3963 B(  3-C ,  8-C ) :   1.3984
B(  4-C ,  5-C ) :   1.3757 B(  4-C , 16-H ) :   0.9558 B(  5-C ,  6-C ) :   1.3778
B(  5-C , 17-H ) :   0.9613 B(  6-C ,  7-C ) :   1.3785 B(  6-C , 18-H ) :   0.9660
B(  7-C ,  8-C ) :   1.3744 B(  7-C , 19-H ) :   0.9611 B(  8-C , 20-H ) :   0.9553

Dispersion correction           -0.021347397
FINAL SINGLE POINT ENERGY      -349.364373722860

DIPOLE MOMENT
-------------

Method             : SCF
Type of density    : Electron Density
Multiplicity       :   1
Irrep              :   0
Energy             :  -349.4245385952791594 Eh
Relativity type    :
Basis              : AO
                                X                 Y                 Z
Electronic contribution:      7.981408648      -0.087274133      -0.862165035
Nuclear contribution   :     -8.154455482       0.047351811       0.815423859
                        -----------------------------------------
Total Dipole Moment    :     -0.173046834      -0.039922322      -0.046741176
                        -----------------------------------------
Magnitude (a.u.)       :      0.183640235
Magnitude (Debye)      :      0.466776383

Rotational constants in cm-1:             0.113086             0.039781             0.030441
Rotational constants in MHz :          3390.222379          1192.597716           912.587696

                             ****ORCA TERMINATED NORMALLY****
TOTAL RUN TIME: 0 days 0 hours 0 minutes 9 seconds 773 msec
