                         Program Version 6.0.0  -   RELEASE  -
|  1> ! pbe def2-sv(p) def2/J RI DEFGRID1 loosescf d4 GCP(DFT/SV(P)) printgap
|  2> %output
|  3>     printlevel normal
|  4> end
|  5> * xyz 0 1
|  6> C -2.2525318081 -0.9633529782 -0.3719423928
|  7> C -1.1476717477 -0.2215489232 0.3891086944
|  8> H -1.587384661 0.2215971162 1.2911505857
|  9> C -0.553208394 0.9060199207 -0.4572276469
| 10> H -0.3670702597 0.5516920142 -1.482817074
| 11> C 0.7879708291 1.3224779747 0.1588112636
| 12> H 0.6199780551 1.55969292 1.2221184966
| 13> C 1.7797165561 0.1523729227 0.049097464
| 14> H 2.2746721223 0.2041082732 -0.9263818935
| 15> C 1.037514132 -1.2030973316 0.1097851242
| 16> H 1.6606964079 -1.9100369925 0.6762642112
| 17> O -0.1531236283 -1.1359943271 0.857555682
| 18> O 0.8294804539 -1.6430273191 -1.1950325573
| 19> O 2.8038376493 0.236976601 1.0051247407
| 20> O 1.2361674027 2.4671305057 -0.5245057254
| 21> O -1.4730595511 1.9645235186 -0.4674287981
| 22> O -2.9587557134 -1.8559535162 0.4528995044
| 23> H -1.8120832993 -1.4904128653 -1.228309068
| 24> H -2.9753455918 -0.2307923406 -0.7350155594
| 25> H 0.6288390917 -2.5913033801 -1.2097887811
| 26> H 2.4324813895 0.1652407826 1.8972176442
| 27> H 2.1033413551 2.7281402549 -0.1831842201
| 28> H -1.0274008958 2.7421144407 -0.8399661618
| 29> H -2.3180414805 -2.3993385867 0.935347986
| 30> *
| 31>
| 32>                          ****END OF INPUT****

CARTESIAN COORDINATES (ANGSTROEM)
---------------------------------
  C     -2.252532   -0.963353   -0.371942
  C     -1.147672   -0.221549    0.389109
  H     -1.587385    0.221597    1.291151
  C     -0.553208    0.906020   -0.457228
  H     -0.367070    0.551692   -1.482817
  C      0.787971    1.322478    0.158811
  H      0.619978    1.559693    1.222118
  C      1.779717    0.152373    0.049097
  H      2.274672    0.204108   -0.926382
  C      1.037514   -1.203097    0.109785
  H      1.660696   -1.910037    0.676264
  O     -0.153124   -1.135994    0.857556
  O      0.829480   -1.643027   -1.195033
  O      2.803838    0.236977    1.005125
  O      1.236167    2.467131   -0.524506
  O     -1.473060    1.964524   -0.467429
  O     -2.958756   -1.855954    0.452900
  H     -1.812083   -1.490413   -1.228309
  H     -2.975346   -0.230792   -0.735016
  H      0.628839   -2.591303   -1.209789
  H      2.432481    0.165241    1.897218
  H      2.103341    2.728140   -0.183184
  H     -1.027401    2.742114   -0.839966
  H     -2.318041   -2.399339    0.935348

 Total Charge           Charge          ....    0
 Multiplicity           Mult            ....    1
 Number of Electrons    NEL             ....   96
 Basis Dimension        Dim             ....  192

ORBITAL ENERGIES
----------------

  NO   OCC          E(Eh)            E(eV)
   0   2.0000     -18.777642      -510.9656
   1   2.0000     -18.775097      -510.8964
   2   2.0000     -18.764741      -510.6145
   3   2.0000     -18.764447      -510.6066
   4   2.0000     -18.748534      -510.1735
   5   2.0000     -18.737401      -509.8706
   6   2.0000      -9.994493      -271.9640
   7   2.0000      -9.947583      -270.6875
   8   2.0000      -9.947076      -270.6737
   9   2.0000      -9.942298      -270.5437
  10   2.0000      -9.941563      -270.5237
  11   2.0000      -9.921442      -269.9762
  12   2.0000      -0.989194       -26.9173
  13   2.0000      -0.952238       -25.9117
  14   2.0000      -0.938029       -25.5251
  15   2.0000      -0.927138       -25.2287
  16   2.0000      -0.918420       -24.9915
  17   2.0000      -0.909639       -24.7525
  18   2.0000      -0.708716       -19.2851
  19   2.0000      -0.694542       -18.8995
  20   2.0000      -0.620796       -16.8927
  21   2.0000      -0.587553       -15.9881
  22   2.0000      -0.568897       -15.4805
  23   2.0000      -0.529564       -14.4102
  24   2.0000      -0.509475       -13.8635
  25   2.0000      -0.498541       -13.5660
  26   2.0000      -0.470447       -12.8015
  27   2.0000      -0.464554       -12.6412
  28   2.0000      -0.444322       -12.0906
  29   2.0000      -0.430474       -11.7138
  30   2.0000      -0.419944       -11.4273
  31   2.0000      -0.394991       -10.7483
  32   2.0000      -0.384433       -10.4609
  33   2.0000      -0.380962       -10.3665
  34   2.0000      -0.365957        -9.9582
  35   2.0000      -0.352533        -9.5929
  36   2.0000      -0.326767        -8.8918
  37   2.0000      -0.319417        -8.6918
  38   2.0000      -0.309101        -8.4111
  39   2.0000      -0.302405        -8.2289
  40   2.0000      -0.285475        -7.7682
  41   2.0000      -0.269445        -7.3320
  42   2.0000      -0.256337        -6.9753
  43   2.0000      -0.251560        -6.8453
  44   2.0000      -0.239776        -6.5246
  45   2.0000      -0.221283        -6.0214
  46   2.0000      -0.213997        -5.8232
  47   2.0000      -0.204348        -5.5606
  48   0.0000       0.008192         0.2229
  49   0.0000       0.017209         0.4683
  50   0.0000       0.026635         0.7248
  51   0.0000       0.052740         1.4351
  52   0.0000       0.057374         1.5612

MULLIKEN ATOMIC CHARGES
-----------------------
   0 C :    0.084979
   1 C :    0.034097
   2 H :    0.074933
   3 C :    0.020039
   4 H :    0.073887
   5 C :    0.053765
   6 H :    0.038851
   7 C :    0.080323
   8 H :    0.082648
   9 C :    0.134980
  10 H :    0.064548
  11 O :   -0.332892
  12 O :   -0.387548
  13 O :   -0.421961
  14 O :   -0.423487
  15 O :   -0.416544
  16 O :   -0.435966
  17 H :    0.056612
  18 H :    0.096137
  19 H :    0.309246
  20 H :    0.300581
  21 H :    0.311147
  22 H :    0.309932
  23 H :    0.291694
Sum of atomic charges:    0.0000000

LOEWDIN ATOMIC CHARGES
----------------------
   0 C :   -0.132255
   1 C :   -0.066205
   2 H :    0.119250
   3 C :   -0.072872
   4 H :    0.109714
   5 C :   -0.077614
   6 H :    0.099984
   7 C :   -0.087065
   8 H :    0.127691
   9 C :   -0.013193
  10 H :    0.098970
  11 O :   -0.158369
  12 O :   -0.304195
  13 O :   -0.313006
  14 O :   -0.322290
  15 O :   -0.315838
  16 O :   -0.339826
  17 H :    0.092974
  18 H :    0.122561
  19 H :    0.290009
  20 H :    0.284301
  21 H :    0.292983
  22 H :    0.287791
  23 H :    0.276501

  Mayer bond orders larger than 0.100000
B(  0-C ,  1-C ) :   1.0860 B(  0-C , 16-O ) :   1.0714 B(  0-C , 17-H ) :   0.8992
B(  0-C , 18-H ) :   0.9112 B(  1-C ,  2-H ) :   0.8732 B(  1-C ,  3-C ) :   0.9746
B(  1-C , 11-O ) :   0.9485 B(  3-C ,  4-H ) :   0.8763 B(  3-C ,  5-C ) :   1.0367
B(  3-C , 15-O ) :   1.0722 B(  5-C ,  6-H ) :   0.8591 B(  5-C ,  7-C ) :   1.0133
B(  5-C , 14-O ) :   1.0773 B(  7-C ,  8-H ) :   0.8598 B(  7-C ,  9-C ) :   0.9915
B(  7-C , 13-O ) :   1.0330 B(  9-C , 10-H ) :   0.8997 B(  9-C , 11-O ) :   1.0745
B(  9-C , 12-O ) :   1.1081 B( 12-O , 19-H ) :   0.8337 B( 13-O , 20-H ) :   0.8473
B( 14-O , 21-H ) :   0.8400 B( 15-O , 22-H ) :   0.8312 B( 16-O , 23-H ) :   0.8461

Dispersion correction           -0.024394651
FINAL SINGLE POINT ENERGY      -685.694358663391

DIPOLE MOMENT
-------------

Method             : SCF
Type of density    : Electron Density
Multiplicity       :   1
Irrep              :   0
Energy             :  -685.8245983328023385 Eh
Relativity type    :
Basis              : AO
                                X                 Y                 Z
Electronic contribution:      1.431363989       0.198508674       0.864789548
Nuclear contribution   :     -0.340391139      -0.421019710      -0.545389183
                        -----------------------------------------
Total Dipole Moment    :      1.090972850      -0.222511036       0.319400365
                        -----------------------------------------
Magnitude (a.u.)       :      1.158339119
Magnitude (Debye)      :      2.944264055

Rotational constants in cm-1:             0.042606             0.025623             0.018783
Rotational constants in MHz :          1277.305960           768.162611           563.096435

                             ****ORCA TERMINATED NORMALLY****
TOTAL RUN TIME: 0 days 0 hours 0 minutes 12 seconds 246 msec
