                         Program Version 6.0.0  -   RELEASE  -
|  1> ! r2scan-3c def2/J RI DEFGRID2 scfconv6 printgap
|  2> %output
|  3>     printlevel normal
|  4> end
|  5> * xyz 0 1
|  6> C -1.2723614823 0.0001455741 3.16513e-05
|  7> C -0.576374628 -1.21634008 -0.0029497631
|  8> C 0.8202837342 -1.2106844314 -0.0143129927
|  9> C 1.5175942228 -0.0001563207 -4.26313e-05
| 10> C 0.8205589462 1.2105227839 0.0143242175
| 11> C -0.5760958698 1.2164868493 0.0030405853
| 12> Cl -1.3989054706 2.7181598001 0.0492649445
| 13> Cl 1.6813838516 2.6856944782 0.0423958808
| 14> Cl 3.2201702405 -0.0003611199 -1.26145e-05
| 15> Cl 1.6807999053 -2.6860454755 -0.0423921295
| 16> Cl -1.3995517309 -2.7178075858 -0.0492625939
| 17> N -2.7171846456 0.0002595703 1.9952e-06
| 18> O -3.2784096369 -0.8213701402 0.6873124785
| 19> O -3.2782462842 0.8219596414 -0.687368158
| 20> *
| 21>
| 22>                          ****END OF INPUT****

CARTESIAN COORDINATES (ANGSTROEM)
---------------------------------
  C     -1.272361    0.000146    0.000032
  C     -0.576375   -1.216340   -0.002950
  C      0.820284   -1.210684   -0.014313
  C      1.517594   -0.000156   -0.000043
  C      0.820559    1.210523    0.014324
  C     -0.576096    1.216487    0.003041
  Cl    -1.398905    2.718160    0.049265
  Cl     1.681384    2.685694    0.042396
  Cl     3.220170   -0.000361   -0.000013
  Cl     1.680800   -2.686045   -0.042392
  Cl    -1.399552   -2.717808   -0.049263
  N     -2.717185    0.000260    0.000002
  O     -3.278410   -0.821370    0.687312
  O     -3.278246    0.821960   -0.687368

 Total Charge           Charge          ....    0
 Multiplicity           Mult            ....    1
 Number of Electrons    NEL             ....  144
 Basis Dimension        Dim             ....  321

ORBITAL ENERGIES
----------------

  NO   OCC          E(Eh)            E(eV)
   0   2.0000    -101.263660     -2755.5243
   1   2.0000    -101.259606     -2755.4139
   2   2.0000    -101.259604     -2755.4139
   3   2.0000    -101.257639     -2755.3604
   4   2.0000    -101.257637     -2755.3604
   5   2.0000     -19.003744      -517.1182
   6   2.0000     -19.003738      -517.1180
   7   2.0000     -14.419361      -392.3708
   8   2.0000     -10.164334      -276.5856
   9   2.0000     -10.164332      -276.5855
  10   2.0000     -10.162670      -276.5403
  11   2.0000     -10.158236      -276.4196
  12   2.0000     -10.158213      -276.4190
  13   2.0000     -10.147819      -276.1362
  14   2.0000      -9.419511      -256.3179
  15   2.0000      -9.415398      -256.2060
  16   2.0000      -9.415397      -256.2060
  17   2.0000      -9.413279      -256.1483
  18   2.0000      -9.413277      -256.1483
  19   2.0000      -7.166226      -195.0029
  20   2.0000      -7.162175      -194.8927
  21   2.0000      -7.162174      -194.8927
  22   2.0000      -7.160223      -194.8396
  23   2.0000      -7.160221      -194.8395
  24   2.0000      -7.155927      -194.7227
  25   2.0000      -7.154601      -194.6866
  26   2.0000      -7.151691      -194.6074
  27   2.0000      -7.151690      -194.6074
  28   2.0000      -7.150558      -194.5766
  29   2.0000      -7.150557      -194.5765
  30   2.0000      -7.149621      -194.5511
  31   2.0000      -7.149619      -194.5510
  32   2.0000      -7.148250      -194.5138
  33   2.0000      -7.148248      -194.5137
  34   2.0000      -1.233253       -33.5585
  35   2.0000      -1.053936       -28.6791
  36   2.0000      -0.956152       -26.0182
  37   2.0000      -0.909231       -24.7414
  38   2.0000      -0.899782       -24.4843
  39   2.0000      -0.858325       -23.3562
  40   2.0000      -0.850399       -23.1405
  41   2.0000      -0.825383       -22.4598
  42   2.0000      -0.785596       -21.3772
  43   2.0000      -0.724942       -19.7267
  44   2.0000      -0.690386       -18.7864
  45   2.0000      -0.619425       -16.8554
  46   2.0000      -0.600434       -16.3386
  47   2.0000      -0.560843       -15.2613
  48   2.0000      -0.544707       -14.8222
  49   2.0000      -0.522378       -14.2146
  50   2.0000      -0.509945       -13.8763
  51   2.0000      -0.495966       -13.4959
  52   2.0000      -0.475866       -12.9490
  53   2.0000      -0.464053       -12.6275
  54   2.0000      -0.459319       -12.4987
  55   2.0000      -0.441360       -12.0100
  56   2.0000      -0.424053       -11.5391
  57   2.0000      -0.402304       -10.9472
  58   2.0000      -0.389472       -10.5981
  59   2.0000      -0.350647        -9.5416
  60   2.0000      -0.348650        -9.4872
  61   2.0000      -0.343014        -9.3339
  62   2.0000      -0.340633        -9.2691
  63   2.0000      -0.329819        -8.9748
  64   2.0000      -0.324362        -8.8263
  65   2.0000      -0.312619        -8.5068
  66   2.0000      -0.303221        -8.2511
  67   2.0000      -0.299237        -8.1426
  68   2.0000      -0.287469        -7.8224
  69   2.0000      -0.277599        -7.5539
  70   2.0000      -0.262771        -7.1504
  71   2.0000      -0.255941        -6.9645
  72   0.0000      -0.139440        -3.7943
  73   0.0000      -0.095722        -2.6047
  74   0.0000      -0.084097        -2.2884
  75   0.0000      -0.076477        -2.0811
  76   0.0000      -0.023605        -0.6423

MULLIKEN ATOMIC CHARGES
-----------------------
   0 C :    0.496631
   1 C :   -0.207458
   2 C :    0.051433
   3 C :    0.010846
   4 C :    0.051427
   5 C :   -0.207538
   6 Cl:   -0.024070
   7 Cl:   -0.039795
   8 Cl:   -0.025891
   9 Cl:   -0.039800
  10 Cl:   -0.024072
  11 N :    0.330891
  12 O :   -0.186300
  13 O :   -0.186303
Sum of atomic charges:   -0.0000000

LOEWDIN ATOMIC CHARGES
----------------------
   0 C :    0.167624
   1 C :   -0.119178
   2 C :   -0.196847
   3 C :   -0.183065
   4 C :   -0.196851
   5 C :   -0.119184
   6 Cl:    0.271190
   7 Cl:    0.205608
   8 Cl:    0.217256
   9 Cl:    0.205602
  10 Cl:    0.271217
  11 N :   -0.502131
  12 O :   -0.010634
  13 O :   -0.010607

  Mayer bond orders larger than 0.100000
B(  0-C ,  1-C ) :   0.9106 B(  0-C ,  5-C ) :   0.9105 B(  0-C ,  6-Cl) :  -0.1898
B(  0-C , 10-Cl) :  -0.1898 B(  0-C , 11-N ) :   0.9530 B(  1-C ,  2-C ) :   1.0022
B(  1-C ,  5-C ) :  -0.1095 B(  1-C , 10-Cl) :   1.4344 B(  2-C ,  3-C ) :   1.0689
B(  2-C ,  9-Cl) :   1.2837 B(  3-C ,  4-C ) :   1.0688 B(  3-C ,  8-Cl) :   1.3399
B(  4-C ,  5-C ) :   1.0022 B(  4-C ,  7-Cl) :   1.2837 B(  5-C ,  6-Cl) :   1.4344
B( 11-N , 12-O ) :   1.8404 B( 11-N , 13-O ) :   1.8404 B( 12-O , 13-O ) :   0.2955

Dispersion correction           -0.009254109
FINAL SINGLE POINT ENERGY     -2734.530182492098

DIPOLE MOMENT
-------------

Method             : SCF
Type of density    : Electron Density
Multiplicity       :   1
Irrep              :   0
Energy             : -2734.5373671769038992 Eh
Relativity type    :
Basis              : AO
                                X                 Y                 Z
Electronic contribution:      6.300116861      -0.000559131       0.000025023
Nuclear contribution   :     -5.190653888       0.000493208       0.000007930
                        -----------------------------------------
Total Dipole Moment    :      1.109462973      -0.000065923       0.000032953
                        -----------------------------------------
Magnitude (a.u.)       :      1.109462976
Magnitude (Debye)      :      2.820030773

Rotational constants in cm-1:             0.014747             0.013586             0.007164
Rotational constants in MHz :           442.114307           407.293666           214.773898

                             ****ORCA TERMINATED NORMALLY****
TOTAL RUN TIME: 0 days 0 hours 0 minutes 38 seconds 253 msec
