                         Program Version 6.0.0  -   RELEASE  -
|  1> ! r2scan-3c def2/J RI DEFGRID2 scfconv6 printgap
|  2> %output
|  3>     printlevel normal
|  4> end
|  5> %cpcm
|  6>     smd true
|  7>     smdsolvent "water"
|  8> end
|  9> * xyz 0 1
| 10> C -1.2723614823 0.0001455741 3.16513e-05
| 11> C -0.576374628 -1.21634008 -0.0029497631
| 12> C 0.8202837342 -1.2106844314 -0.0143129927
| 13> C 1.5175942228 -0.0001563207 -4.26313e-05
| 14> C 0.8205589462 1.2105227839 0.0143242175
| 15> C -0.5760958698 1.2164868493 0.0030405853
| 16> Cl -1.3989054706 2.7181598001 0.0492649445
| 17> Cl 1.6813838516 2.6856944782 0.0423958808
| 18> Cl 3.2201702405 -0.0003611199 -1.26145e-05
| 19> Cl 1.6807999053 -2.6860454755 -0.0423921295
| 20> Cl -1.3995517309 -2.7178075858 -0.0492625939
| 21> N -2.7171846456 0.0002595703 1.9952e-06
| 22> O -3.2784096369 -0.8213701402 0.6873124785
| 23> O -3.2782462842 0.8219596414 -0.687368158
| 24> *
| 25>
| 26>                          ****END OF INPUT****

CARTESIAN COORDINATES (ANGSTROEM)
---------------------------------
  C     -1.272361    0.000146    0.000032
  C     -0.576375   -1.216340   -0.002950
  C      0.820284   -1.210684   -0.014313
  C      1.517594   -0.000156   -0.000043
  C      0.820559    1.210523    0.014324
  C     -0.576096    1.216487    0.003041
  Cl    -1.398905    2.718160    0.049265
  Cl     1.681384    2.685694    0.042396
  Cl     3.220170   -0.000361   -0.000013
  Cl     1.680800   -2.686045   -0.042392
  Cl    -1.399552   -2.717808   -0.049263
  N     -2.717185    0.000260    0.000002
  O     -3.278410   -0.821370    0.687312
  O     -3.278246    0.821960   -0.687368

 Total Charge           Charge          ....    0
 Multiplicity           Mult            ....    1
 Number of Electrons    NEL             ....  144
 Basis Dimension        Dim             ....  321

ORBITAL ENERGIES
----------------

  NO   OCC          E(Eh)            E(eV)
   0   2.0000    -101.255890     -2755.3129
   1   2.0000    -101.253080     -2755.2364
   2   2.0000    -101.253079     -2755.2364
   3   2.0000    -101.252391     -2755.2176
   4   2.0000    -101.252390     -2755.2176
   5   2.0000     -19.010650      -517.3061
   6   2.0000     -19.010644      -517.3059
   7   2.0000     -14.424218      -392.5029
   8   2.0000     -10.156886      -276.3829
   9   2.0000     -10.156885      -276.3829
  10   2.0000     -10.153950      -276.3030
  11   2.0000     -10.149430      -276.1800
  12   2.0000     -10.149407      -276.1794
  13   2.0000     -10.141974      -275.9771
  14   2.0000      -9.411714      -256.1058
  15   2.0000      -9.408787      -256.0261
  16   2.0000      -9.408786      -256.0261
  17   2.0000      -9.408190      -256.0099
  18   2.0000      -9.408189      -256.0098
  19   2.0000      -7.158392      -194.7898
  20   2.0000      -7.155654      -194.7152
  21   2.0000      -7.155652      -194.7152
  22   2.0000      -7.154926      -194.6954
  23   2.0000      -7.154925      -194.6954
  24   2.0000      -7.148146      -194.5109
  25   2.0000      -7.146838      -194.4753
  26   2.0000      -7.145113      -194.4284
  27   2.0000      -7.145112      -194.4284
  28   2.0000      -7.144478      -194.4111
  29   2.0000      -7.144477      -194.4111
  30   2.0000      -7.143841      -194.3938
  31   2.0000      -7.143840      -194.3938
  32   2.0000      -7.143398      -194.3818
  33   2.0000      -7.143398      -194.3817
  34   2.0000      -1.238902       -33.7122
  35   2.0000      -1.060414       -28.8553
  36   2.0000      -0.947662       -25.7872
  37   2.0000      -0.902122       -24.5480
  38   2.0000      -0.892945       -24.2983
  39   2.0000      -0.852125       -23.1875
  40   2.0000      -0.843193       -22.9444
  41   2.0000      -0.820213       -22.3191
  42   2.0000      -0.780353       -21.2345
  43   2.0000      -0.717006       -19.5107
  44   2.0000      -0.685067       -18.6416
  45   2.0000      -0.612428       -16.6650
  46   2.0000      -0.597625       -16.2622
  47   2.0000      -0.557095       -15.1593
  48   2.0000      -0.548882       -14.9358
  49   2.0000      -0.524527       -14.2731
  50   2.0000      -0.503527       -13.7017
  51   2.0000      -0.502842       -13.6830
  52   2.0000      -0.469040       -12.7632
  53   2.0000      -0.457143       -12.4395
  54   2.0000      -0.449449       -12.2301
  55   2.0000      -0.434062       -11.8114
  56   2.0000      -0.417622       -11.3641
  57   2.0000      -0.394284       -10.7290
  58   2.0000      -0.381965       -10.3938
  59   2.0000      -0.349388        -9.5073
  60   2.0000      -0.342882        -9.3303
  61   2.0000      -0.335818        -9.1381
  62   2.0000      -0.333422        -9.0729
  63   2.0000      -0.326184        -8.8759
  64   2.0000      -0.323559        -8.8045
  65   2.0000      -0.308867        -8.4047
  66   2.0000      -0.306577        -8.3424
  67   2.0000      -0.296456        -8.0670
  68   2.0000      -0.289714        -7.8835
  69   2.0000      -0.277394        -7.5483
  70   2.0000      -0.258481        -7.0336
  71   2.0000      -0.247771        -6.7422
  72   0.0000      -0.140627        -3.8266
  73   0.0000      -0.086450        -2.3524
  74   0.0000      -0.076736        -2.0881
  75   0.0000      -0.071290        -1.9399
  76   0.0000      -0.016708        -0.4546

MULLIKEN ATOMIC CHARGES
-----------------------
   0 C :    0.543865
   1 C :   -0.195892
   2 C :    0.066940
   3 C :    0.031610
   4 C :    0.066907
   5 C :   -0.195931
   6 Cl:   -0.041904
   7 Cl:   -0.050994
   8 Cl:   -0.033859
   9 Cl:   -0.050997
  10 Cl:   -0.041904
  11 N :    0.356979
  12 O :   -0.227406
  13 O :   -0.227415
Sum of atomic charges:   -0.0000000

LOEWDIN ATOMIC CHARGES
----------------------
   0 C :    0.179604
   1 C :   -0.108906
   2 C :   -0.186099
   3 C :   -0.169640
   4 C :   -0.186103
   5 C :   -0.108912
   6 Cl:    0.263215
   7 Cl:    0.201514
   8 Cl:    0.216144
   9 Cl:    0.201508
  10 Cl:    0.263242
  11 N :   -0.493688
  12 O :   -0.035950
  13 O :   -0.035929

  Mayer bond orders larger than 0.100000
B(  0-C ,  1-C ) :   0.9039 B(  0-C ,  5-C ) :   0.9039 B(  0-C ,  6-Cl) :  -0.1842
B(  0-C , 10-Cl) :  -0.1842 B(  0-C , 11-N ) :   0.9825 B(  1-C ,  2-C ) :   1.0134
B(  1-C ,  5-C ) :  -0.1046 B(  1-C , 10-Cl) :   1.3974 B(  2-C ,  3-C ) :   1.0819
B(  2-C ,  9-Cl) :   1.2654 B(  3-C ,  4-C ) :   1.0818 B(  3-C ,  8-Cl) :   1.3230
B(  4-C ,  5-C ) :   1.0134 B(  4-C ,  7-Cl) :   1.2654 B(  5-C ,  6-Cl) :   1.3974
B( 11-N , 12-O ) :   1.8130 B( 11-N , 13-O ) :   1.8130 B( 12-O , 13-O ) :   0.2885

Dispersion correction           -0.009254109
FINAL SINGLE POINT ENERGY     -2734.528761084294

DIPOLE MOMENT
-------------

Method             : SCF
Type of density    : Electron Density
Multiplicity       :   1
Irrep              :   0
Energy             : -2734.5359457691006355 Eh
Relativity type    :
Basis              : AO
                                X                 Y                 Z
Electronic contribution:      6.717761045      -0.000598099       0.000051500
Nuclear contribution   :     -5.190653888       0.000493208       0.000007930
                        -----------------------------------------
Total Dipole Moment    :      1.527107157      -0.000104891       0.000059429
                        -----------------------------------------
Magnitude (a.u.)       :      1.527107162
Magnitude (Debye)      :      3.881597930

Rotational constants in cm-1:             0.014747             0.013586             0.007164
Rotational constants in MHz :           442.114307           407.293666           214.773898

                             ****ORCA TERMINATED NORMALLY****
TOTAL RUN TIME: 0 days 0 hours 0 minutes 52 seconds 852 msec
