                         Program Version 6.0.0  -   RELEASE  -
|  1> ! pbe def2-sv(p) def2/J RI DEFGRID1 loosescf d4 GCP(DFT/SV(P)) printgap
|  2> %output
|  3>     printlevel normal
|  4> end
|  5> * xyz 0 1
|  6> C -0.4649143719 -1.3735636479 0.0006489875
|  7> C 0.2597340689 -0.2263592171 -0.0005234549
|  8> C -0.409869692 1.0701309826 0.0002988709
|  9> O 0.14405784 2.1523385946 0.0020145418
| 10> N -1.7886819268 0.9710379902 -0.0017563464
| 11> C -2.5419950715 -0.1754909207 -0.0001550731
| 12> O -3.7518368167 -0.173702777 -0.0010438031
| 13> N -1.8082184584 -1.3475742228 0.002068742
| 14> C 1.7528692918 -0.2186885341 -0.0004888799
| 15> F 2.2740084344 -1.4586861072 -0.011486059
| 16> F 2.2749172192 0.4084033606 -1.0704915862
| 17> F 2.2747369225 0.3893560469 1.0809992551
| 18> H 0.0128112873 -2.3437238282 0.0009960047
| 19> H -2.3035735906 1.8483151947 -0.0027168698
| 20> H -2.3429181762 -2.2119298343 0.003028409
| 21> *
| 22>
| 23>                          ****END OF INPUT****

CARTESIAN COORDINATES (ANGSTROEM)
---------------------------------
  C     -0.464914   -1.373564    0.000649
  C      0.259734   -0.226359   -0.000523
  C     -0.409870    1.070131    0.000299
  O      0.144058    2.152339    0.002015
  N     -1.788682    0.971038   -0.001756
  C     -2.541995   -0.175491   -0.000155
  O     -3.751837   -0.173703   -0.001044
  N     -1.808218   -1.347574    0.002069
  C      1.752869   -0.218689   -0.000489
  F      2.274008   -1.458686   -0.011486
  F      2.274917    0.408403   -1.070492
  F      2.274737    0.389356    1.080999
  H      0.012811   -2.343724    0.000996
  H     -2.303574    1.848315   -0.002717
  H     -2.342918   -2.211930    0.003028

 Total Charge           Charge          ....    0
 Multiplicity           Mult            ....    1
 Number of Electrons    NEL             ....   90
 Basis Dimension        Dim             ....  174

ORBITAL ENERGIES
----------------

  NO   OCC          E(Eh)            E(eV)
   0   2.0000     -24.295258      -661.1076
   1   2.0000     -24.284615      -660.8180
   2   2.0000     -24.284486      -660.8145
   3   2.0000     -18.754717      -510.3418
   4   2.0000     -18.748075      -510.1611
   5   2.0000     -14.086748      -383.3199
   6   2.0000     -14.067569      -382.7980
   7   2.0000     -10.132740      -275.7259
   8   2.0000     -10.053150      -273.5601
   9   2.0000     -10.019835      -272.6536
  10   2.0000      -9.990915      -271.8666
  11   2.0000      -9.936684      -270.3909
  12   2.0000      -1.191523       -32.4230
  13   2.0000      -1.100316       -29.9411
  14   2.0000      -1.092928       -29.7401
  15   2.0000      -1.005112       -27.3505
  16   2.0000      -0.963389       -26.2151
  17   2.0000      -0.917419       -24.9642
  18   2.0000      -0.867061       -23.5939
  19   2.0000      -0.758839       -20.6491
  20   2.0000      -0.664697       -18.0873
  21   2.0000      -0.631401       -17.1813
  22   2.0000      -0.626644       -17.0518
  23   2.0000      -0.572297       -15.5730
  24   2.0000      -0.549339       -14.9483
  25   2.0000      -0.523336       -14.2407
  26   2.0000      -0.515636       -14.0312
  27   2.0000      -0.499897       -13.6029
  28   2.0000      -0.487257       -13.2589
  29   2.0000      -0.459395       -12.5008
  30   2.0000      -0.432202       -11.7608
  31   2.0000      -0.401275       -10.9193
  32   2.0000      -0.396409       -10.7868
  33   2.0000      -0.393877       -10.7179
  34   2.0000      -0.384377       -10.4594
  35   2.0000      -0.378981       -10.3126
  36   2.0000      -0.363291        -9.8856
  37   2.0000      -0.357890        -9.7387
  38   2.0000      -0.345672        -9.4062
  39   2.0000      -0.344554        -9.3758
  40   2.0000      -0.335329        -9.1248
  41   2.0000      -0.267179        -7.2703
  42   2.0000      -0.261876        -7.1260
  43   2.0000      -0.242904        -6.6098
  44   2.0000      -0.231694        -6.3047
  45   0.0000      -0.093091        -2.5331
  46   0.0000      -0.044215        -1.2032
  47   0.0000      -0.005101        -0.1388
  48   0.0000       0.039098         1.0639
  49   0.0000       0.045780         1.2457

MULLIKEN ATOMIC CHARGES
-----------------------
   0 C :    0.034267
   1 C :   -0.274296
   2 C :    0.164555
   3 O :   -0.152086
   4 N :   -0.232900
   5 C :    0.144742
   6 O :   -0.169521
   7 N :   -0.195152
   8 C :    0.461192
   9 F :   -0.140282
  10 F :   -0.131473
  11 F :   -0.132003
  12 H :    0.102131
  13 H :    0.257219
  14 H :    0.263607
Sum of atomic charges:    0.0000000

LOEWDIN ATOMIC CHARGES
----------------------
   0 C :   -0.033085
   1 C :   -0.176072
   2 C :    0.034596
   3 O :   -0.158478
   4 N :   -0.110119
   5 C :    0.034572
   6 O :   -0.176159
   7 N :   -0.085912
   8 C :    0.131611
   9 F :   -0.047913
  10 F :   -0.040225
  11 F :   -0.040853
  12 H :    0.144053
  13 H :    0.261366
  14 H :    0.262619

  Mayer bond orders larger than 0.100000
B(  0-C ,  1-C ) :   1.6560 B(  0-C ,  7-N ) :   1.2225 B(  0-C , 12-H ) :   0.9245
B(  1-C ,  2-C ) :   0.9933 B(  1-C ,  8-C ) :   0.9664 B(  2-C ,  3-O ) :   2.1745
B(  2-C ,  4-N ) :   1.0734 B(  4-N ,  5-C ) :   1.1137 B(  4-N , 13-H ) :   0.8260
B(  5-C ,  6-O ) :   2.1502 B(  5-C ,  7-N ) :   1.0540 B(  7-N , 14-H ) :   0.8415
B(  8-C ,  9-F ) :   1.1636 B(  8-C , 10-F ) :   1.1859 B(  8-C , 11-F ) :   1.1858

Dispersion correction           -0.016823855
FINAL SINGLE POINT ENERGY      -750.460581227609

DIPOLE MOMENT
-------------

Method             : SCF
Type of density    : Electron Density
Multiplicity       :   1
Irrep              :   0
Energy             :  -750.5305630818303371 Eh
Relativity type    :
Basis              : AO
                                X                 Y                 Z
Electronic contribution:      9.976297158       0.361159707      -0.002789402
Nuclear contribution   :    -10.742725753      -1.900400569       0.002149295
                        -----------------------------------------
Total Dipole Moment    :     -0.766428594      -1.539240863      -0.000640107
                        -----------------------------------------
Magnitude (a.u.)       :      1.719498658
Magnitude (Debye)      :      4.370618249

Rotational constants in cm-1:             0.065959             0.021453             0.017681
Rotational constants in MHz :          1977.411851           643.131256           530.059363

                             ****ORCA TERMINATED NORMALLY****
TOTAL RUN TIME: 0 days 0 hours 0 minutes 9 seconds 377 msec
