                         Program Version 6.0.0  -   RELEASE  -
|  1> ! pbe def2-sv(p) def2/J RI DEFGRID1 loosescf d4 GCP(DFT/SV(P)) printgap
|  2> %output
|  3>     printlevel normal
|  4> end
|  5> * xyz 0 1
|  6> C -2.5531516388 -0.6950357114 -0.3255602901
|  7> C -1.1618931754 -0.329817777 0.209824907
|  8> H -1.1866175823 -0.2718111938 1.3109417954
|  9> C -0.6909809227 1.0278546691 -0.3558198698
| 10> H -0.6779627835 0.9505108956 -1.4498756785
| 11> C 0.7315308312 1.3254077536 0.1536314645
| 12> H 0.7190774769 1.4291549693 1.2461260887
| 13> C 1.6592942567 0.1525412277 -0.1968693605
| 14> H 1.7575096464 0.0736538566 -1.2909016068
| 15> C 1.0428899338 -1.1671409302 0.3073343897
| 16> H 1.0259146085 -1.1419961643 1.4190954139
| 17> O -0.2628664818 -1.3518306281 -0.1769683935
| 18> O 1.8297509264 -2.2051324367 -0.1533635726
| 19> O 2.9081451434 0.3743327652 0.4015353309
| 20> O 1.2088189245 2.5579119306 -0.3092363636
| 21> O -1.5897852679 2.0614671421 -0.0580499876
| 22> O -3.1976683073 -1.6940385935 0.4194548141
| 23> H -2.4345364917 -1.1010049256 -1.3316021466
| 24> H -3.1529616456 0.2209655269 -0.3713567122
| 25> H 1.3450693971 -3.0411769494 -0.0704473665
| 26> H 3.4879386715 -0.3771337488 0.205508254
| 27> H 1.3190562193 2.5360999287 -1.2706728927
| 28> H -1.4101396797 2.4175425839 0.8243963483
| 29> H -3.4348293929 -1.3502070318 1.292641008
| 30> *
| 31>
| 32>                          ****END OF INPUT****

CARTESIAN COORDINATES (ANGSTROEM)
---------------------------------
  C     -2.553152   -0.695036   -0.325560
  C     -1.161893   -0.329818    0.209825
  H     -1.186618   -0.271811    1.310942
  C     -0.690981    1.027855   -0.355820
  H     -0.677963    0.950511   -1.449876
  C      0.731531    1.325408    0.153631
  H      0.719077    1.429155    1.246126
  C      1.659294    0.152541   -0.196869
  H      1.757510    0.073654   -1.290902
  C      1.042890   -1.167141    0.307334
  H      1.025915   -1.141996    1.419095
  O     -0.262866   -1.351831   -0.176968
  O      1.829751   -2.205132   -0.153364
  O      2.908145    0.374333    0.401535
  O      1.208819    2.557912   -0.309236
  O     -1.589785    2.061467   -0.058050
  O     -3.197668   -1.694039    0.419455
  H     -2.434536   -1.101005   -1.331602
  H     -3.152962    0.220966   -0.371357
  H      1.345069   -3.041177   -0.070447
  H      3.487939   -0.377134    0.205508
  H      1.319056    2.536100   -1.270673
  H     -1.410140    2.417543    0.824396
  H     -3.434829   -1.350207    1.292641

 Total Charge           Charge          ....    0
 Multiplicity           Mult            ....    1
 Number of Electrons    NEL             ....   96
 Basis Dimension        Dim             ....  192

ORBITAL ENERGIES
----------------

  NO   OCC          E(Eh)            E(eV)
   0   2.0000     -18.776033      -510.9218
   1   2.0000     -18.770039      -510.7587
   2   2.0000     -18.760066      -510.4874
   3   2.0000     -18.752258      -510.2749
   4   2.0000     -18.750928      -510.2387
   5   2.0000     -18.747101      -510.1346
   6   2.0000      -9.989920      -271.8396
   7   2.0000      -9.949525      -270.7403
   8   2.0000      -9.948160      -270.7032
   9   2.0000      -9.947473      -270.6845
  10   2.0000      -9.944415      -270.6013
  11   2.0000      -9.930235      -270.2154
  12   2.0000      -0.990637       -26.9566
  13   2.0000      -0.948370       -25.8065
  14   2.0000      -0.937133       -25.5007
  15   2.0000      -0.925980       -25.1972
  16   2.0000      -0.919331       -25.0163
  17   2.0000      -0.915714       -24.9178
  18   2.0000      -0.707045       -19.2397
  19   2.0000      -0.694005       -18.8848
  20   2.0000      -0.617329       -16.7984
  21   2.0000      -0.590424       -16.0662
  22   2.0000      -0.562065       -15.2946
  23   2.0000      -0.547950       -14.9105
  24   2.0000      -0.506606       -13.7855
  25   2.0000      -0.498727       -13.5711
  26   2.0000      -0.480452       -13.0738
  27   2.0000      -0.453642       -12.3442
  28   2.0000      -0.446906       -12.1609
  29   2.0000      -0.434169       -11.8143
  30   2.0000      -0.418506       -11.3881
  31   2.0000      -0.404608       -11.0099
  32   2.0000      -0.389553       -10.6003
  33   2.0000      -0.385537       -10.4910
  34   2.0000      -0.359490        -9.7822
  35   2.0000      -0.351573        -9.5668
  36   2.0000      -0.325425        -8.8553
  37   2.0000      -0.322580        -8.7779
  38   2.0000      -0.306984        -8.3534
  39   2.0000      -0.291285        -7.9263
  40   2.0000      -0.282866        -7.6972
  41   2.0000      -0.274218        -7.4619
  42   2.0000      -0.261543        -7.1170
  43   2.0000      -0.248684        -6.7670
  44   2.0000      -0.231739        -6.3059
  45   2.0000      -0.225578        -6.1383
  46   2.0000      -0.212606        -5.7853
  47   2.0000      -0.202594        -5.5129
  48   0.0000       0.013778         0.3749
  49   0.0000       0.021852         0.5946
  50   0.0000       0.025796         0.7019
  51   0.0000       0.033458         0.9104
  52   0.0000       0.055132         1.5002

MULLIKEN ATOMIC CHARGES
-----------------------
   0 C :    0.090256
   1 C :    0.003279
   2 H :    0.022998
   3 C :    0.037200
   4 H :    0.055807
   5 C :    0.075277
   6 H :    0.053316
   7 C :    0.038118
   8 H :    0.044913
   9 C :    0.173261
  10 H :    0.038115
  11 O :   -0.300424
  12 O :   -0.391584
  13 O :   -0.404663
  14 O :   -0.396873
  15 O :   -0.400767
  16 O :   -0.431784
  17 H :    0.087162
  18 H :    0.089093
  19 H :    0.313878
  20 H :    0.307870
  21 H :    0.299204
  22 H :    0.303160
  23 H :    0.293189
Sum of atomic charges:    0.0000000

LOEWDIN ATOMIC CHARGES
----------------------
   0 C :   -0.130294
   1 C :   -0.077492
   2 H :    0.091114
   3 C :   -0.081253
   4 H :    0.112944
   5 C :   -0.077129
   6 H :    0.113580
   7 C :   -0.088478
   8 H :    0.101033
   9 C :   -0.005972
  10 H :    0.079567
  11 O :   -0.147698
  12 O :   -0.303852
  13 O :   -0.312846
  14 O :   -0.303202
  15 O :   -0.303824
  16 O :   -0.333050
  17 H :    0.120447
  18 H :    0.105442
  19 H :    0.294946
  20 H :    0.289437
  21 H :    0.287194
  22 H :    0.288102
  23 H :    0.281284

  Mayer bond orders larger than 0.100000
B(  0-C ,  1-C ) :   1.0239 B(  0-C , 16-O ) :   1.0867 B(  0-C , 17-H ) :   0.9050
B(  0-C , 18-H ) :   0.9163 B(  1-C ,  2-H ) :   0.8704 B(  1-C ,  3-C ) :   0.9495
B(  1-C , 11-O ) :   0.9889 B(  3-C ,  4-H ) :   0.8694 B(  3-C ,  5-C ) :   0.9963
B(  3-C , 15-O ) :   1.0541 B(  5-C ,  6-H ) :   0.8630 B(  5-C ,  7-C ) :   0.9964
B(  5-C , 14-O ) :   1.0837 B(  7-C ,  8-H ) :   0.8633 B(  7-C ,  9-C ) :   0.9821
B(  7-C , 13-O ) :   1.0944 B(  9-C , 10-H ) :   0.8846 B(  9-C , 11-O ) :   1.0213
B(  9-C , 12-O ) :   1.1592 B( 12-O , 19-H ) :   0.8354 B( 13-O , 20-H ) :   0.8399
B( 14-O , 21-H ) :   0.8492 B( 15-O , 22-H ) :   0.8449 B( 16-O , 23-H ) :   0.8547

Dispersion correction           -0.023520653
FINAL SINGLE POINT ENERGY      -685.691333962079

DIPOLE MOMENT
-------------

Method             : SCF
Type of density    : Electron Density
Multiplicity       :   1
Irrep              :   0
Energy             :  -685.8200565267466118 Eh
Relativity type    :
Basis              : AO
                                X                 Y                 Z
Electronic contribution:      2.413753555      -0.589170561      -0.140064544
Nuclear contribution   :     -2.465817598       0.319479691       0.483908756
                        -----------------------------------------
Total Dipole Moment    :     -0.052064043      -0.269690870       0.343844211
                        -----------------------------------------
Magnitude (a.u.)       :      0.440082574
Magnitude (Debye)      :      1.118601005

Rotational constants in cm-1:             0.039533             0.025318             0.016233
Rotational constants in MHz :          1185.178271           759.006643           486.652647

                             ****ORCA TERMINATED NORMALLY****
TOTAL RUN TIME: 0 days 0 hours 0 minutes 11 seconds 638 msec
