                         Program Version 6.0.0  -   RELEASE  -
|  1> ! pbe def2-sv(p) def2/J RI DEFGRID1 loosescf d4 GCP(DFT/SV(P)) printgap
|  2> %output
|  3>     printlevel normal
|  4> end
|  5> * xyz 0 1
|  6> C -2.0653124721 -1.3775251988 -0.1102358047
|  7> C -1.0125868386 -0.5023703534 0.59446144
|  8> H -1.4482360241 -0.1471948545 1.5373502658
|  9> C -0.6342431832 0.7103990491 -0.2757074221
| 10> H -0.5204264661 0.3880703058 -1.3191105719
| 11> C 0.7145989481 1.2467349648 0.2223137634
| 12> H 0.6852225418 1.3683279518 1.3121842342
| 13> C 1.7845668303 0.1950031822 -0.1188974361
| 14> H 2.0366814583 0.27363262 -1.1882366124
| 15> C 1.2284060574 -1.2273812921 0.1053125831
| 16> H 2.0010282541 -1.8036914733 0.6318037486
| 17> O 0.1317608636 -1.2594907593 0.9823324837
| 18> O 0.9252429344 -1.773897576 -1.1399860515
| 19> O 2.9386978333 0.3383772052 0.6671192626
| 20> O 1.0330193615 2.5141326638 -0.2888370029
| 21> O -1.651636753 1.677298517 -0.2931958787
| 22> O -3.3214594515 -0.7486856631 -0.1514065755
| 23> H -2.2012189912 -2.3005237615 0.4579453626
| 24> H -1.7190061775 -1.6261867126 -1.1222962919
| 25> H 0.8082884472 -2.7330963604 -1.0662991628
| 26> H 3.2538719842 1.2531480284 0.5986423876
| 27> H 0.9028775841 2.5277936765 -1.2483818569
| 28> H -1.6482263885 2.1795069694 0.5347124529
| 29> H -3.217713117 0.1329437961 -0.5452297119
| 30> *
| 31>
| 32>                          ****END OF INPUT****

CARTESIAN COORDINATES (ANGSTROEM)
---------------------------------
  C     -2.065312   -1.377525   -0.110236
  C     -1.012587   -0.502370    0.594461
  H     -1.448236   -0.147195    1.537350
  C     -0.634243    0.710399   -0.275707
  H     -0.520426    0.388070   -1.319111
  C      0.714599    1.246735    0.222314
  H      0.685223    1.368328    1.312184
  C      1.784567    0.195003   -0.118897
  H      2.036681    0.273633   -1.188237
  C      1.228406   -1.227381    0.105313
  H      2.001028   -1.803691    0.631804
  O      0.131761   -1.259491    0.982332
  O      0.925243   -1.773898   -1.139986
  O      2.938698    0.338377    0.667119
  O      1.033019    2.514133   -0.288837
  O     -1.651637    1.677299   -0.293196
  O     -3.321459   -0.748686   -0.151407
  H     -2.201219   -2.300524    0.457945
  H     -1.719006   -1.626187   -1.122296
  H      0.808288   -2.733096   -1.066299
  H      3.253872    1.253148    0.598642
  H      0.902878    2.527794   -1.248382
  H     -1.648226    2.179507    0.534712
  H     -3.217713    0.132944   -0.545230

 Total Charge           Charge          ....    0
 Multiplicity           Mult            ....    1
 Number of Electrons    NEL             ....   96
 Basis Dimension        Dim             ....  192

ORBITAL ENERGIES
----------------

  NO   OCC          E(Eh)            E(eV)
   0   2.0000     -18.773238      -510.8458
   1   2.0000     -18.772725      -510.8318
   2   2.0000     -18.770147      -510.7617
   3   2.0000     -18.765719      -510.6412
   4   2.0000     -18.756430      -510.3884
   5   2.0000     -18.735925      -509.8305
   6   2.0000      -9.990114      -271.8448
   7   2.0000      -9.952688      -270.8264
   8   2.0000      -9.949872      -270.7498
   9   2.0000      -9.946179      -270.6493
  10   2.0000      -9.943441      -270.5748
  11   2.0000      -9.923441      -270.0306
  12   2.0000      -0.985858       -26.8266
  13   2.0000      -0.958895       -26.0929
  14   2.0000      -0.941515       -25.6199
  15   2.0000      -0.926379       -25.2081
  16   2.0000      -0.919076       -25.0093
  17   2.0000      -0.910156       -24.7666
  18   2.0000      -0.710772       -19.3411
  19   2.0000      -0.694386       -18.8952
  20   2.0000      -0.618826       -16.8391
  21   2.0000      -0.595727       -16.2106
  22   2.0000      -0.569010       -15.4836
  23   2.0000      -0.531906       -14.4739
  24   2.0000      -0.518933       -14.1209
  25   2.0000      -0.499932       -13.6038
  26   2.0000      -0.477250       -12.9866
  27   2.0000      -0.457391       -12.4462
  28   2.0000      -0.443240       -12.0612
  29   2.0000      -0.427611       -11.6359
  30   2.0000      -0.414023       -11.2661
  31   2.0000      -0.406046       -11.0491
  32   2.0000      -0.391768       -10.6606
  33   2.0000      -0.370386       -10.0787
  34   2.0000      -0.364015        -9.9053
  35   2.0000      -0.358300        -9.7498
  36   2.0000      -0.336028        -9.1438
  37   2.0000      -0.325184        -8.8487
  38   2.0000      -0.313138        -8.5209
  39   2.0000      -0.295587        -8.0433
  40   2.0000      -0.283397        -7.7116
  41   2.0000      -0.274490        -7.4693
  42   2.0000      -0.264270        -7.1911
  43   2.0000      -0.247986        -6.7480
  44   2.0000      -0.238354        -6.4859
  45   2.0000      -0.230612        -6.2753
  46   2.0000      -0.215805        -5.8724
  47   2.0000      -0.197825        -5.3831
  48   0.0000       0.009533         0.2594
  49   0.0000       0.021788         0.5929
  50   0.0000       0.022525         0.6129
  51   0.0000       0.041537         1.1303
  52   0.0000       0.052462         1.4276

MULLIKEN ATOMIC CHARGES
-----------------------
   0 C :    0.074167
   1 C :    0.057170
   2 H :    0.061417
   3 C :   -0.035806
   4 H :    0.073616
   5 C :    0.039778
   6 H :    0.061798
   7 C :    0.083721
   8 H :    0.056599
   9 C :    0.161321
  10 H :    0.079407
  11 O :   -0.312452
  12 O :   -0.396321
  13 O :   -0.413095
  14 O :   -0.411928
  15 O :   -0.408716
  16 O :   -0.447707
  17 H :    0.083435
  18 H :    0.064632
  19 H :    0.310657
  20 H :    0.306512
  21 H :    0.303721
  22 H :    0.309762
  23 H :    0.298311
Sum of atomic charges:    0.0000000

LOEWDIN ATOMIC CHARGES
----------------------
   0 C :   -0.131948
   1 C :   -0.075298
   2 H :    0.112802
   3 C :   -0.093226
   4 H :    0.115732
   5 C :   -0.088511
   6 H :    0.117478
   7 C :   -0.080520
   8 H :    0.103605
   9 C :   -0.001085
  10 H :    0.108862
  11 O :   -0.143455
  12 O :   -0.307074
  13 O :   -0.316307
  14 O :   -0.312669
  15 O :   -0.301900
  16 O :   -0.342148
  17 H :    0.111325
  18 H :    0.093198
  19 H :    0.290758
  20 H :    0.288506
  21 H :    0.287975
  22 H :    0.291436
  23 H :    0.272464

  Mayer bond orders larger than 0.100000
B(  0-C ,  1-C ) :   1.0517 B(  0-C , 16-O ) :   1.0797 B(  0-C , 17-H ) :   0.9198
B(  0-C , 18-H ) :   0.9063 B(  1-C ,  2-H ) :   0.8816 B(  1-C ,  3-C ) :   0.9643
B(  1-C , 11-O ) :   0.9608 B(  3-C ,  4-H ) :   0.8745 B(  3-C ,  5-C ) :   1.0230
B(  3-C , 15-O ) :   1.0312 B(  5-C ,  6-H ) :   0.8464 B(  5-C ,  7-C ) :   1.0282
B(  5-C , 14-O ) :   1.0662 B(  7-C ,  8-H ) :   0.8805 B(  7-C ,  9-C ) :   0.9765
B(  7-C , 13-O ) :   1.0928 B(  9-C , 10-H ) :   0.8935 B(  9-C , 11-O ) :   1.0818
B(  9-C , 12-O ) :   1.1039 B( 12-O , 19-H ) :   0.8357 B( 13-O , 20-H ) :   0.8405
B( 14-O , 21-H ) :   0.8462 B( 15-O , 22-H ) :   0.8399 B( 16-O , 23-H ) :   0.8259

Dispersion correction           -0.024647389
FINAL SINGLE POINT ENERGY      -685.692785067689

DIPOLE MOMENT
-------------

Method             : SCF
Type of density    : Electron Density
Multiplicity       :   1
Irrep              :   0
Energy             :  -685.8235049367467582 Eh
Relativity type    :
Basis              : AO
                                X                 Y                 Z
Electronic contribution:      1.587452463       0.788190777       0.926567770
Nuclear contribution   :     -1.000069206      -0.446064675      -1.332626079
                        -----------------------------------------
Total Dipole Moment    :      0.587383257       0.342126102      -0.406058309
                        -----------------------------------------
Magnitude (a.u.)       :      0.791803455
Magnitude (Debye)      :      2.012604438

Rotational constants in cm-1:             0.043864             0.026127             0.018699
Rotational constants in MHz :          1315.019156           783.260260           560.583941

                             ****ORCA TERMINATED NORMALLY****
TOTAL RUN TIME: 0 days 0 hours 0 minutes 12 seconds 333 msec
