                         Program Version 6.0.0  -   RELEASE  -
|  1> ! pbe def2-sv(p) def2/J RI DEFGRID1 loosescf d4 GCP(DFT/SV(P)) printgap
|  2> %output
|  3>     printlevel normal
|  4> end
|  5> * xyz 0 1
|  6> C -3.4319940684 0.5924895543 0.1508489861
|  7> C -1.9358024675 0.481384632 0.1167479692
|  8> C -1.148091866 1.5191084441 -0.1315516557
|  9> C 0.3463739464 1.4704858246 -0.1619404632
| 10> C 0.8547982997 0.0321401878 -0.2747971814
| 11> H 0.57720743 -0.3574668816 -1.2600358729
| 12> C 0.1121177252 -0.8223699963 0.7585773494
| 13> C -1.3675240585 -0.8966793357 0.3843832537
| 14> H -1.9249255779 -1.3567591157 1.219209445
| 15> O -1.4775342342 -1.7479917101 -0.7530971468
| 16> C 2.3503854237 -0.0854158251 -0.124427281
| 17> C 3.0738218207 -0.7350111407 -1.0238841428
| 18> C 2.9815644705 0.544082656 1.0812637236
| 19> H -3.7415799504 1.6244840813 0.0117947158
| 20> H -3.8137981755 0.2361623638 1.107063793
| 21> H -3.8872944677 -0.0089395557 -0.6352933285
| 22> H -1.5872225733 2.4931352299 -0.3055545544
| 23> H 0.7164198182 2.0646903179 -1.000795338
| 24> H 0.7208046439 1.9315002208 0.7566290693
| 25> H 0.5194510717 -1.8344034477 0.7708225622
| 26> H 0.2028780876 -0.38799462 1.754330082
| 27> H -2.4002708139 -1.7786697916 -1.036452709
| 28> H 4.1405193568 -0.8487659668 -0.9243989958
| 29> H 2.6285663023 -1.1837001467 -1.896071173
| 30> H 3.0068038793 1.6274467708 0.9721280045
| 31> H 2.4190633208 0.3064339025 1.9809665389
| 32> H 4.0025803244 0.1924975831 1.2021260299
| 33> *
| 34>
| 35>                          ****END OF INPUT****

CARTESIAN COORDINATES (ANGSTROEM)
---------------------------------
  C     -3.431994    0.592490    0.150849
  C     -1.935802    0.481385    0.116748
  C     -1.148092    1.519108   -0.131552
  C      0.346374    1.470486   -0.161940
  C      0.854798    0.032140   -0.274797
  H      0.577207   -0.357467   -1.260036
  C      0.112118   -0.822370    0.758577
  C     -1.367524   -0.896679    0.384383
  H     -1.924926   -1.356759    1.219209
  O     -1.477534   -1.747992   -0.753097
  C      2.350385   -0.085416   -0.124427
  C      3.073822   -0.735011   -1.023884
  C      2.981564    0.544083    1.081264
  H     -3.741580    1.624484    0.011795
  H     -3.813798    0.236162    1.107064
  H     -3.887294   -0.008940   -0.635293
  H     -1.587223    2.493135   -0.305555
  H      0.716420    2.064690   -1.000795
  H      0.720805    1.931500    0.756629
  H      0.519451   -1.834403    0.770823
  H      0.202878   -0.387995    1.754330
  H     -2.400271   -1.778670   -1.036453
  H      4.140519   -0.848766   -0.924399
  H      2.628566   -1.183700   -1.896071
  H      3.006804    1.627447    0.972128
  H      2.419063    0.306434    1.980967
  H      4.002580    0.192498    1.202126

 Total Charge           Charge          ....    0
 Multiplicity           Mult            ....    1
 Number of Electrons    NEL             ....   84
 Basis Dimension        Dim             ....  186

ORBITAL ENERGIES
----------------

  NO   OCC          E(Eh)            E(eV)
   0   2.0000     -18.742358      -510.0055
   1   2.0000      -9.937461      -270.4121
   2   2.0000      -9.892186      -269.1801
   3   2.0000      -9.891585      -269.1637
   4   2.0000      -9.889264      -269.1006
   5   2.0000      -9.887210      -269.0447
   6   2.0000      -9.886537      -269.0264
   7   2.0000      -9.884690      -268.9761
   8   2.0000      -9.881416      -268.8870
   9   2.0000      -9.877358      -268.7766
  10   2.0000      -9.860873      -268.3280
  11   2.0000      -0.918595       -24.9962
  12   2.0000      -0.762237       -20.7415
  13   2.0000      -0.720741       -19.6124
  14   2.0000      -0.677180       -18.4270
  15   2.0000      -0.660971       -17.9859
  16   2.0000      -0.612659       -16.6713
  17   2.0000      -0.604109       -16.4387
  18   2.0000      -0.550628       -14.9833
  19   2.0000      -0.531701       -14.4683
  20   2.0000      -0.487218       -13.2579
  21   2.0000      -0.470718       -12.8089
  22   2.0000      -0.430218       -11.7068
  23   2.0000      -0.421584       -11.4719
  24   2.0000      -0.402389       -10.9496
  25   2.0000      -0.400007       -10.8847
  26   2.0000      -0.383996       -10.4491
  27   2.0000      -0.378716       -10.3054
  28   2.0000      -0.367155        -9.9908
  29   2.0000      -0.360618        -9.8129
  30   2.0000      -0.354233        -9.6392
  31   2.0000      -0.346394        -9.4259
  32   2.0000      -0.335583        -9.1317
  33   2.0000      -0.322209        -8.7677
  34   2.0000      -0.313982        -8.5439
  35   2.0000      -0.296575        -8.0702
  36   2.0000      -0.289019        -7.8646
  37   2.0000      -0.278742        -7.5850
  38   2.0000      -0.257172        -6.9980
  39   2.0000      -0.223280        -6.0758
  40   2.0000      -0.208136        -5.6637
  41   2.0000      -0.205492        -5.5917
  42   0.0000      -0.017764        -0.4834
  43   0.0000      -0.002352        -0.0640
  44   0.0000       0.020042         0.5454
  45   0.0000       0.046392         1.2624
  46   0.0000       0.062900         1.7116

MULLIKEN ATOMIC CHARGES
-----------------------
   0 C :   -0.215238
   1 C :   -0.094273
   2 C :   -0.172617
   3 C :   -0.054417
   4 C :   -0.175332
   5 H :    0.074463
   6 C :   -0.100925
   7 C :    0.110256
   8 H :    0.052494
   9 O :   -0.425930
  10 C :   -0.011491
  11 C :   -0.230185
  12 C :   -0.233220
  13 H :    0.102885
  14 H :    0.106340
  15 H :    0.093625
  16 H :    0.039437
  17 H :    0.091417
  18 H :    0.092188
  19 H :    0.086979
  20 H :    0.083010
  21 H :    0.295826
  22 H :    0.074708
  23 H :    0.086008
  24 H :    0.117732
  25 H :    0.108905
  26 H :    0.097355
Sum of atomic charges:    0.0000000

LOEWDIN ATOMIC CHARGES
----------------------
   0 C :   -0.324650
   1 C :   -0.089710
   2 C :   -0.133975
   3 C :   -0.210809
   4 C :   -0.128975
   5 H :    0.126818
   6 C :   -0.208261
   7 C :   -0.035500
   8 H :    0.098154
   9 O :   -0.327667
  10 C :   -0.049468
  11 C :   -0.266475
  12 C :   -0.325840
  13 H :    0.126159
  14 H :    0.126059
  15 H :    0.117981
  16 H :    0.115558
  17 H :    0.127307
  18 H :    0.126028
  19 H :    0.125830
  20 H :    0.118397
  21 H :    0.281469
  22 H :    0.113699
  23 H :    0.118011
  24 H :    0.130301
  25 H :    0.124010
  26 H :    0.125550

  Mayer bond orders larger than 0.100000
B(  0-C ,  1-C ) :   1.1105 B(  0-C , 13-H ) :   0.9420 B(  0-C , 14-H ) :   0.9321
B(  0-C , 15-H ) :   0.9286 B(  1-C ,  2-C ) :   1.9307 B(  1-C ,  7-C ) :   0.9794
B(  2-C ,  3-C ) :   1.0532 B(  2-C , 16-H ) :   0.9229 B(  3-C ,  4-C ) :   1.0798
B(  3-C , 17-H ) :   0.9039 B(  3-C , 18-H ) :   0.8735 B(  4-C ,  5-H ) :   0.8800
B(  4-C ,  6-C ) :   1.0613 B(  4-C , 10-C ) :   1.0134 B(  6-C ,  7-C ) :   1.0845
B(  6-C , 19-H ) :   0.9038 B(  6-C , 20-H ) :   0.9035 B(  7-C ,  8-H ) :   0.8929
B(  7-C ,  9-O ) :   1.0393 B(  9-O , 21-H ) :   0.8481 B( 10-C , 11-C ) :   2.0420
B( 10-C , 12-C ) :   1.1066 B( 11-C , 22-H ) :   0.9029 B( 11-C , 23-H ) :   0.9094
B( 12-C , 24-H ) :   0.9229 B( 12-C , 25-H ) :   0.9323 B( 12-C , 26-H ) :   0.9346

Dispersion correction           -0.028328107
FINAL SINGLE POINT ENERGY      -464.792462652176

DIPOLE MOMENT
-------------

Method             : SCF
Type of density    : Electron Density
Multiplicity       :   1
Irrep              :   0
Energy             :  -464.8823877519423604 Eh
Relativity type    :
Basis              : AO
                                X                 Y                 Z
Electronic contribution:     -2.064720805      -2.175482850      -2.245736782
Nuclear contribution   :      1.459645095       2.525564954       2.537332145
                        -----------------------------------------
Total Dipole Moment    :     -0.605075710       0.350082104       0.291595362
                        -----------------------------------------
Magnitude (a.u.)       :      0.757431152
Magnitude (Debye)      :      1.925236988

Rotational constants in cm-1:             0.071258             0.023012             0.019974
Rotational constants in MHz :          2136.263039           689.875579           598.797433

                             ****ORCA TERMINATED NORMALLY****
TOTAL RUN TIME: 0 days 0 hours 0 minutes 12 seconds 476 msec
