                         Program Version 6.0.0  -   RELEASE  -
|  1> ! pbe def2-sv(p) def2/J RI DEFGRID1 loosescf d4 GCP(DFT/SV(P)) printgap
|  2> %output
|  3>     printlevel normal
|  4> end
|  5> * xyz 0 1
|  6> C -1.5898866235 -0.1730011986 0.4879227758
|  7> C -0.6772101211 0.4999238913 -0.5307821526
|  8> C 0.677820761 -0.2036108753 -0.6274358334
|  9> O 1.4266168282 -0.1390511338 0.5685782712
| 10> H -2.5117605397 0.3899332916 0.6074359761
| 11> H -1.8372349743 -1.1817298047 0.1656589657
| 12> H -1.0905189484 -0.2372885626 1.4518526769
| 13> H -0.518651549 1.5434898265 -0.2490240478
| 14> H -1.1423641718 0.4841596644 -1.5171811423
| 15> H 0.5333739918 -1.2699431666 -0.8175661135
| 16> H 1.2598755916 0.2200713234 -1.4578022802
| 17> H 1.6000724248 0.7891183761 0.7786926881
| 18> *
| 19>
| 20>                          ****END OF INPUT****

CARTESIAN COORDINATES (ANGSTROEM)
---------------------------------
  C     -1.589887   -0.173001    0.487923
  C     -0.677210    0.499924   -0.530782
  C      0.677821   -0.203611   -0.627436
  O      1.426617   -0.139051    0.568578
  H     -2.511761    0.389933    0.607436
  H     -1.837235   -1.181730    0.165659
  H     -1.090519   -0.237289    1.451853
  H     -0.518652    1.543490   -0.249024
  H     -1.142364    0.484160   -1.517181
  H      0.533374   -1.269943   -0.817566
  H      1.259876    0.220071   -1.457802
  H      1.600072    0.789118    0.778693

 Total Charge           Charge          ....    0
 Multiplicity           Mult            ....    1
 Number of Electrons    NEL             ....   34
 Basis Dimension        Dim             ....   72

ORBITAL ENERGIES
----------------

  NO   OCC          E(Eh)            E(eV)
   0   2.0000     -18.739588      -509.9301
   1   2.0000      -9.926187      -270.1053
   2   2.0000      -9.886035      -269.0127
   3   2.0000      -9.871234      -268.6099
   4   2.0000      -0.915954       -24.9244
   5   2.0000      -0.697138       -18.9701
   6   2.0000      -0.601876       -16.3779
   7   2.0000      -0.532829       -14.4990
   8   2.0000      -0.439192       -11.9510
   9   2.0000      -0.413138       -11.2420
  10   2.0000      -0.402628       -10.9561
  11   2.0000      -0.356652        -9.7050
  12   2.0000      -0.322689        -8.7808
  13   2.0000      -0.314520        -8.5585
  14   2.0000      -0.298908        -8.1337
  15   2.0000      -0.266587        -7.2542
  16   2.0000      -0.211896        -5.7660
  17   0.0000       0.026619         0.7243
  18   0.0000       0.060193         1.6379
  19   0.0000       0.083573         2.2741
  20   0.0000       0.085866         2.3365
  21   0.0000       0.112193         3.0529

MULLIKEN ATOMIC CHARGES
-----------------------
   0 C :   -0.276343
   1 C :   -0.218684
   2 C :    0.012556
   3 O :   -0.438433
   4 H :    0.102932
   5 H :    0.098094
   6 H :    0.104969
   7 H :    0.077515
   8 H :    0.085532
   9 H :    0.084840
  10 H :    0.075181
  11 H :    0.291841
Sum of atomic charges:   -0.0000000

LOEWDIN ATOMIC CHARGES
----------------------
   0 C :   -0.344355
   1 C :   -0.259800
   2 C :   -0.122873
   3 O :   -0.342478
   4 H :    0.117916
   5 H :    0.117917
   6 H :    0.119187
   7 H :    0.110067
   8 H :    0.119260
   9 H :    0.111694
  10 H :    0.093147
  11 H :    0.280318

  Mayer bond orders larger than 0.100000
B(  0-C ,  1-C ) :   1.1418 B(  0-C ,  4-H ) :   0.9547 B(  0-C ,  5-H ) :   0.9574
B(  0-C ,  6-H ) :   0.9495 B(  1-C ,  2-C ) :   1.0974 B(  1-C ,  7-H ) :   0.9268
B(  1-C ,  8-H ) :   0.9167 B(  2-C ,  3-O ) :   1.0595 B(  2-C ,  9-H ) :   0.9305
B(  2-C , 10-H ) :   0.9301 B(  3-O , 11-H ) :   0.8549

Dispersion correction           -0.006436889
FINAL SINGLE POINT ENERGY      -193.875088978107

DIPOLE MOMENT
-------------

Method             : SCF
Type of density    : Electron Density
Multiplicity       :   1
Irrep              :   0
Energy             :  -193.9246437822027929 Eh
Relativity type    :
Basis              : AO
                                X                 Y                 Z
Electronic contribution:      3.298367754      -0.158581879       0.699661971
Nuclear contribution   :     -3.456764322       0.690123771      -0.965296991
                        -----------------------------------------
Total Dipole Moment    :     -0.158396569       0.531541892      -0.265635020
                        -----------------------------------------
Magnitude (a.u.)       :      0.614970097
Magnitude (Debye)      :      1.563129762

Rotational constants in cm-1:             0.482549             0.167517             0.144367
Rotational constants in MHz :         14466.442711          5022.042779          4328.012427

                             ****ORCA TERMINATED NORMALLY****
TOTAL RUN TIME: 0 days 0 hours 0 minutes 4 seconds 467 msec
