                         Program Version 6.0.0  -   RELEASE  -
|  1> ! pbe def2-sv(p) def2/J RI DEFGRID1 loosescf d4 GCP(DFT/SV(P)) printgap
|  2> %output
|  3>     printlevel normal
|  4> end
|  5> * xyz 0 1
|  6> C -2.3785878839 -0.9868055571 0.668834568
|  7> N -1.6056306058 -0.0882662066 -0.1619559389
|  8> C -2.3210517341 1.1182477429 -0.5153460504
|  9> C -0.2289768032 -0.0416514657 -0.0500478184
| 10> C 0.5200136369 -1.1825631274 0.2749038614
| 11> C 1.8984718217 -1.1503322628 0.3155196271
| 12> C 2.5924285712 0.0153006529 0.036785606
| 13> C 1.8718338851 1.1514198293 -0.2853365647
| 14> C 0.49132085 1.1297742918 -0.326951155
| 15> H -3.3612511668 -1.1213063427 0.2186599394
| 16> H -2.5091634429 -0.5894020336 1.6834184178
| 17> H -1.906606882 -1.9608991272 0.73690156
| 18> H -2.2904686343 1.8763275782 0.2772247055
| 19> H -3.3609628742 0.8588132707 -0.7035520025
| 20> H -1.9073343127 1.5397940874 -1.4298202261
| 21> H 0.0296248499 -2.1189066488 0.4867165923
| 22> H 2.4387645487 -2.0519429954 0.5672322911
| 23> H 3.6710092156 0.0366845031 0.0718357421
| 24> H 2.389666914 2.0754559269 -0.5007902373
| 25> H -0.0220726334 2.0457674721 -0.5676428565
| 26> *
| 27>
| 28>                          ****END OF INPUT****

CARTESIAN COORDINATES (ANGSTROEM)
---------------------------------
  C     -2.378588   -0.986806    0.668835
  N     -1.605631   -0.088266   -0.161956
  C     -2.321052    1.118248   -0.515346
  C     -0.228977   -0.041651   -0.050048
  C      0.520014   -1.182563    0.274904
  C      1.898472   -1.150332    0.315520
  C      2.592429    0.015301    0.036786
  C      1.871834    1.151420   -0.285337
  C      0.491321    1.129774   -0.326951
  H     -3.361251   -1.121306    0.218660
  H     -2.509163   -0.589402    1.683418
  H     -1.906607   -1.960899    0.736902
  H     -2.290469    1.876328    0.277225
  H     -3.360963    0.858813   -0.703552
  H     -1.907334    1.539794   -1.429820
  H      0.029625   -2.118907    0.486717
  H      2.438765   -2.051943    0.567232
  H      3.671009    0.036685    0.071836
  H      2.389667    2.075456   -0.500790
  H     -0.022073    2.045767   -0.567643

 Total Charge           Charge          ....    0
 Multiplicity           Mult            ....    1
 Number of Electrons    NEL             ....   66
 Basis Dimension        Dim             ....  148

ORBITAL ENERGIES
----------------

  NO   OCC          E(Eh)            E(eV)
   0   2.0000     -14.007457      -381.1623
   1   2.0000      -9.923763      -270.0393
   2   2.0000      -9.915130      -269.8044
   3   2.0000      -9.913743      -269.7667
   4   2.0000      -9.880741      -268.8686
   5   2.0000      -9.880631      -268.8656
   6   2.0000      -9.877600      -268.7832
   7   2.0000      -9.876880      -268.7636
   8   2.0000      -9.872161      -268.6352
   9   2.0000      -0.860837       -23.4246
  10   2.0000      -0.756906       -20.5965
  11   2.0000      -0.666852       -18.1460
  12   2.0000      -0.666508       -18.1366
  13   2.0000      -0.642958       -17.4958
  14   2.0000      -0.588318       -16.0089
  15   2.0000      -0.530389       -14.4326
  16   2.0000      -0.509756       -13.8712
  17   2.0000      -0.476914       -12.9775
  18   2.0000      -0.428149       -11.6505
  19   2.0000      -0.421040       -11.4571
  20   2.0000      -0.418004       -11.3745
  21   2.0000      -0.391921       -10.6647
  22   2.0000      -0.371998       -10.1226
  23   2.0000      -0.366769        -9.9803
  24   2.0000      -0.357607        -9.7310
  25   2.0000      -0.349838        -9.5196
  26   2.0000      -0.335133        -9.1194
  27   2.0000      -0.323465        -8.8019
  28   2.0000      -0.305401        -8.3104
  29   2.0000      -0.285606        -7.7717
  30   2.0000      -0.248081        -6.7506
  31   2.0000      -0.217538        -5.9195
  32   2.0000      -0.162034        -4.4092
  33   0.0000      -0.022583        -0.6145
  34   0.0000      -0.009729        -0.2647
  35   0.0000       0.034743         0.9454
  36   0.0000       0.055963         1.5228
  37   0.0000       0.069675         1.8960

MULLIKEN ATOMIC CHARGES
-----------------------
   0 C :   -0.176959
   1 N :   -0.252993
   2 C :   -0.169005
   3 C :    0.265250
   4 C :   -0.168240
   5 C :   -0.061378
   6 C :   -0.052562
   7 C :   -0.055759
   8 C :   -0.176601
   9 H :    0.107567
  10 H :    0.096740
  11 H :    0.130120
  12 H :    0.096407
  13 H :    0.107359
  14 H :    0.124174
  15 H :    0.027005
  16 H :    0.044625
  17 H :    0.041244
  18 H :    0.044852
  19 H :    0.028151
Sum of atomic charges:    0.0000000

LOEWDIN ATOMIC CHARGES
----------------------
   0 C :   -0.245846
   1 N :   -0.075552
   2 C :   -0.251278
   3 C :    0.005711
   4 C :   -0.158489
   5 C :   -0.119294
   6 C :   -0.158279
   7 C :   -0.117959
   8 C :   -0.169642
   9 H :    0.116626
  10 H :    0.105345
  11 H :    0.121048
  12 H :    0.104475
  13 H :    0.118553
  14 H :    0.122309
  15 H :    0.119944
  16 H :    0.120547
  17 H :    0.118953
  18 H :    0.120552
  19 H :    0.122277

  Mayer bond orders larger than 0.100000
B(  0-C ,  1-N ) :   1.0344 B(  0-C ,  9-H ) :   0.9528 B(  0-C , 10-H ) :   0.9403
B(  0-C , 11-H ) :   0.9430 B(  1-N ,  2-C ) :   1.0500 B(  1-N ,  3-C ) :   1.1272
B(  2-C , 12-H ) :   0.9352 B(  2-C , 13-H ) :   0.9482 B(  2-C , 14-H ) :   0.9424
B(  3-C ,  4-C ) :   1.3030 B(  3-C ,  8-C ) :   1.3103 B(  4-C ,  5-C ) :   1.4217
B(  4-C , 15-H ) :   0.9564 B(  5-C ,  6-C ) :   1.3557 B(  5-C , 16-H ) :   0.9593
B(  6-C ,  7-C ) :   1.3734 B(  6-C , 17-H ) :   0.9681 B(  7-C ,  8-C ) :   1.3818
B(  7-C , 18-H ) :   0.9606 B(  8-C , 19-H ) :   0.9567

Dispersion correction           -0.020389900
FINAL SINGLE POINT ENERGY      -365.378159419658

DIPOLE MOMENT
-------------

Method             : SCF
Type of density    : Electron Density
Multiplicity       :   1
Irrep              :   0
Energy             :  -365.4393221466224304 Eh
Relativity type    :
Basis              : AO
                                X                 Y                 Z
Electronic contribution:      5.646811350      -0.533279875      -0.700760959
Nuclear contribution   :     -6.415356299       0.553397106       0.787345890
                        -----------------------------------------
Total Dipole Moment    :     -0.768544949       0.020117231       0.086584931
                        -----------------------------------------
Magnitude (a.u.)       :      0.773668529
Magnitude (Debye)      :      1.966509119

Rotational constants in cm-1:             0.119682             0.040639             0.031015
Rotational constants in MHz :          3587.972893          1218.323090           929.808246

                             ****ORCA TERMINATED NORMALLY****
TOTAL RUN TIME: 0 days 0 hours 0 minutes 9 seconds 778 msec
