                         Program Version 6.0.0  -   RELEASE  -
|  1> ! pbe def2-sv(p) def2/J RI DEFGRID1 loosescf d4 GCP(DFT/SV(P)) printgap
|  2> %output
|  3>     printlevel normal
|  4> end
|  5> * xyz 0 1
|  6> C -1.8391768846 -1.0706196317 -0.6159508167
|  7> C -1.0256039143 -0.4898007436 0.5582048473
|  8> H -1.6373954141 -0.5535348803 1.4673943415
|  9> C -0.6965427215 1.0003768649 0.3445843813
| 10> H -1.5320828288 1.4422163243 -0.2108135405
| 11> C 0.6011285054 1.2344079457 -0.4622737371
| 12> H 0.8816554152 2.2840169756 -0.3045077528
| 13> C 1.7272773672 0.3451533029 0.0873081733
| 14> H 2.5890399779 0.4196673294 -0.5905533586
| 15> C 1.2648714571 -1.1257192839 0.1082037416
| 16> H 2.0103695186 -1.7323061905 0.6455663157
| 17> O 0.1015040569 -1.3090372919 0.8669623711
| 18> O 1.1361574893 -1.553856809 -1.2155945437
| 19> O 2.0438261822 0.7949775316 1.3795317464
| 20> O 0.4376299821 1.0769771836 -1.8465676319
| 21> O -0.641335286 1.6893846815 1.5719785168
| 22> O -3.1018615883 -0.4680117799 -0.7354409663
| 23> H -1.9314574267 -2.1544840214 -0.4668913307
| 24> H -1.3353592707 -0.8819172916 -1.5648653524
| 25> H 0.9965213107 -2.5122024187 -1.25189607
| 26> H 2.8300911054 0.3407835599 1.7154515775
| 27> H 0.5624956125 0.1410475507 -2.0762440097
| 28> H 0.1965577872 1.4675408655 2.0119724789
| 29> H -3.6289922221 -0.6531397675 0.0548546285
| 30> *
| 31>
| 32>                          ****END OF INPUT****

CARTESIAN COORDINATES (ANGSTROEM)
---------------------------------
  C     -1.839177   -1.070620   -0.615951
  C     -1.025604   -0.489801    0.558205
  H     -1.637395   -0.553535    1.467394
  C     -0.696543    1.000377    0.344584
  H     -1.532083    1.442216   -0.210814
  C      0.601129    1.234408   -0.462274
  H      0.881655    2.284017   -0.304508
  C      1.727277    0.345153    0.087308
  H      2.589040    0.419667   -0.590553
  C      1.264871   -1.125719    0.108204
  H      2.010370   -1.732306    0.645566
  O      0.101504   -1.309037    0.866962
  O      1.136157   -1.553857   -1.215595
  O      2.043826    0.794978    1.379532
  O      0.437630    1.076977   -1.846568
  O     -0.641335    1.689385    1.571979
  O     -3.101862   -0.468012   -0.735441
  H     -1.931457   -2.154484   -0.466891
  H     -1.335359   -0.881917   -1.564865
  H      0.996521   -2.512202   -1.251896
  H      2.830091    0.340784    1.715452
  H      0.562496    0.141048   -2.076244
  H      0.196558    1.467541    2.011972
  H     -3.628992   -0.653140    0.054855

 Total Charge           Charge          ....    0
 Multiplicity           Mult            ....    1
 Number of Electrons    NEL             ....   96
 Basis Dimension        Dim             ....  192

ORBITAL ENERGIES
----------------

  NO   OCC          E(Eh)            E(eV)
   0   2.0000     -18.794226      -511.4169
   1   2.0000     -18.782053      -511.0857
   2   2.0000     -18.773651      -510.8570
   3   2.0000     -18.749733      -510.2062
   4   2.0000     -18.741683      -509.9871
   5   2.0000     -18.728056      -509.6163
   6   2.0000     -10.002601      -272.1846
   7   2.0000      -9.955663      -270.9074
   8   2.0000      -9.938254      -270.4336
   9   2.0000      -9.938014      -270.4271
  10   2.0000      -9.929677      -270.2002
  11   2.0000      -9.926367      -270.1102
  12   2.0000      -0.997099       -27.1324
  13   2.0000      -0.956353       -26.0237
  14   2.0000      -0.932835       -25.3837
  15   2.0000      -0.923592       -25.1322
  16   2.0000      -0.921719       -25.0812
  17   2.0000      -0.904002       -24.5991
  18   2.0000      -0.700304       -19.0562
  19   2.0000      -0.692094       -18.8328
  20   2.0000      -0.619428       -16.8555
  21   2.0000      -0.592770       -16.1301
  22   2.0000      -0.576972       -15.7002
  23   2.0000      -0.534340       -14.5401
  24   2.0000      -0.508611       -13.8400
  25   2.0000      -0.486522       -13.2389
  26   2.0000      -0.477353       -12.9894
  27   2.0000      -0.459192       -12.4953
  28   2.0000      -0.446048       -12.1376
  29   2.0000      -0.433440       -11.7945
  30   2.0000      -0.421945       -11.4817
  31   2.0000      -0.396223       -10.7818
  32   2.0000      -0.380006       -10.3405
  33   2.0000      -0.376304       -10.2397
  34   2.0000      -0.372372       -10.1327
  35   2.0000      -0.345967        -9.4143
  36   2.0000      -0.339565        -9.2400
  37   2.0000      -0.321861        -8.7583
  38   2.0000      -0.304171        -8.2769
  39   2.0000      -0.294015        -8.0006
  40   2.0000      -0.285024        -7.7559
  41   2.0000      -0.270950        -7.3729
  42   2.0000      -0.255294        -6.9469
  43   2.0000      -0.245507        -6.6806
  44   2.0000      -0.240833        -6.5534
  45   2.0000      -0.231331        -6.2948
  46   2.0000      -0.211216        -5.7475
  47   2.0000      -0.189861        -5.1664
  48   0.0000      -0.001039        -0.0283
  49   0.0000       0.003545         0.0965
  50   0.0000       0.026417         0.7188
  51   0.0000       0.058675         1.5966
  52   0.0000       0.069615         1.8943

MULLIKEN ATOMIC CHARGES
-----------------------
   0 C :    0.035776
   1 C :    0.015884
   2 H :    0.063119
   3 C :    0.080161
   4 H :    0.085799
   5 C :    0.042738
   6 H :    0.085551
   7 C :   -0.002148
   8 H :    0.083956
   9 C :    0.187021
  10 H :    0.054735
  11 O :   -0.309101
  12 O :   -0.407443
  13 O :   -0.416436
  14 O :   -0.419600
  15 O :   -0.436159
  16 O :   -0.423749
  17 H :    0.065907
  18 H :    0.070888
  19 H :    0.317703
  20 H :    0.310807
  21 H :    0.315177
  22 H :    0.300861
  23 H :    0.298554
Sum of atomic charges:    0.0000000

LOEWDIN ATOMIC CHARGES
----------------------
   0 C :   -0.143517
   1 C :   -0.078050
   2 H :    0.113241
   3 C :   -0.073453
   4 H :    0.124609
   5 C :   -0.065799
   6 H :    0.120240
   7 C :   -0.088837
   8 H :    0.110623
   9 C :   -0.012701
  10 H :    0.093562
  11 O :   -0.143007
  12 O :   -0.304603
  13 O :   -0.302744
  14 O :   -0.315420
  15 O :   -0.325849
  16 O :   -0.325041
  17 H :    0.091703
  18 H :    0.107377
  19 H :    0.295782
  20 H :    0.293194
  21 H :    0.271965
  22 H :    0.271890
  23 H :    0.284834

  Mayer bond orders larger than 0.100000
B(  0-C ,  1-C ) :   1.0243 B(  0-C , 16-O ) :   1.0567 B(  0-C , 17-H ) :   0.9130
B(  0-C , 18-H ) :   0.9044 B(  1-C ,  2-H ) :   0.8940 B(  1-C ,  3-C ) :   0.9811
B(  1-C , 11-O ) :   0.9688 B(  3-C ,  4-H ) :   0.8794 B(  3-C ,  5-C ) :   0.9731
B(  3-C , 15-O ) :   1.0425 B(  5-C ,  6-H ) :   0.9000 B(  5-C ,  7-C ) :   1.0065
B(  5-C , 14-O ) :   1.0873 B(  7-C ,  8-H ) :   0.8965 B(  7-C ,  9-C ) :   0.9704
B(  7-C , 13-O ) :   1.0297 B(  9-C , 10-H ) :   0.9049 B(  9-C , 11-O ) :   1.0962
B(  9-C , 12-O ) :   1.0836 B( 12-O , 19-H ) :   0.8283 B( 13-O , 20-H ) :   0.8393
B( 14-O , 21-H ) :   0.8021 B( 15-O , 22-H ) :   0.8227 B( 16-O , 23-H ) :   0.8496

Dispersion correction           -0.025813080
FINAL SINGLE POINT ENERGY      -685.695978487410

DIPOLE MOMENT
-------------

Method             : SCF
Type of density    : Electron Density
Multiplicity       :   1
Irrep              :   0
Energy             :  -685.8284116696663659 Eh
Relativity type    :
Basis              : AO
                                X                 Y                 Z
Electronic contribution:      1.139940670       0.535499717       1.032114318
Nuclear contribution   :      0.000997589      -2.240981843      -0.534946971
                        -----------------------------------------
Total Dipole Moment    :      1.140938259      -1.705482125       0.497167347
                        -----------------------------------------
Magnitude (a.u.)       :      2.111299307
Magnitude (Debye)      :      5.366496355

Rotational constants in cm-1:             0.040467             0.028457             0.024558
Rotational constants in MHz :          1213.179268           853.106967           736.221592

                             ****ORCA TERMINATED NORMALLY****
TOTAL RUN TIME: 0 days 0 hours 0 minutes 12 seconds 664 msec
