                         Program Version 6.0.0  -   RELEASE  -
|  1> ! pbe def2-sv(p) def2/J RI DEFGRID1 loosescf d4 GCP(DFT/SV(P)) printgap
|  2> %output
|  3>     printlevel normal
|  4> end
|  5> * xyz 0 1
|  6> C -2.2022988127 0.2794770787 0.3821951072
|  7> C -0.9861872252 0.2255146995 -0.5425691111
|  8> C 0.0018200921 -0.7959664029 -0.070607679
|  9> C 1.2858580724 -0.5898692422 0.1803428047
| 10> C 2.0096888659 0.7140028623 0.0265855708
| 11> H -1.898512481 0.5567324457 1.3891667779
| 12> H -2.6911849172 -0.6912945769 0.4271722411
| 13> H -2.9209582964 1.0121177298 0.0229170194
| 14> H -1.3194899063 -0.0439695065 -1.5495209541
| 15> H -0.5230752553 1.2103475597 -0.5912181556
| 16> H -0.4125318747 -1.7853472489 0.0787568817
| 17> H 1.8856760171 -1.4178319448 0.534946898
| 18> H 3.0832323423 0.5621193993 0.0929622318
| 19> H 1.7150342908 1.4083362956 0.813305398
| 20> H 1.7843718675 1.1768861149 -0.9318664069
| 21> *
| 22>
| 23>                          ****END OF INPUT****

CARTESIAN COORDINATES (ANGSTROEM)
---------------------------------
  C     -2.202299    0.279477    0.382195
  C     -0.986187    0.225515   -0.542569
  C      0.001820   -0.795966   -0.070608
  C      1.285858   -0.589869    0.180343
  C      2.009689    0.714003    0.026586
  H     -1.898512    0.556732    1.389167
  H     -2.691185   -0.691295    0.427172
  H     -2.920958    1.012118    0.022917
  H     -1.319490   -0.043970   -1.549521
  H     -0.523075    1.210348   -0.591218
  H     -0.412532   -1.785347    0.078757
  H      1.885676   -1.417832    0.534947
  H      3.083232    0.562119    0.092962
  H      1.715034    1.408336    0.813305
  H      1.784372    1.176886   -0.931866

 Total Charge           Charge          ....    0
 Multiplicity           Mult            ....    1
 Number of Electrons    NEL             ....   40
 Basis Dimension        Dim             ....   90

ORBITAL ENERGIES
----------------

  NO   OCC          E(Eh)            E(eV)
   0   2.0000      -9.885034      -268.9854
   1   2.0000      -9.879629      -268.8384
   2   2.0000      -9.877381      -268.7772
   3   2.0000      -9.876404      -268.7506
   4   2.0000      -9.874644      -268.7027
   5   2.0000      -0.722911       -19.6714
   6   2.0000      -0.672165       -18.2905
   7   2.0000      -0.605171       -16.4675
   8   2.0000      -0.546415       -14.8687
   9   2.0000      -0.465769       -12.6742
  10   2.0000      -0.428683       -11.6651
  11   2.0000      -0.387823       -10.5532
  12   2.0000      -0.380215       -10.3462
  13   2.0000      -0.364670        -9.9232
  14   2.0000      -0.335114        -9.1189
  15   2.0000      -0.324539        -8.8312
  16   2.0000      -0.319425        -8.6920
  17   2.0000      -0.297417        -8.0931
  18   2.0000      -0.278405        -7.5758
  19   2.0000      -0.208365        -5.6699
  20   0.0000      -0.008102        -0.2205
  21   0.0000       0.043313         1.1786
  22   0.0000       0.064688         1.7603
  23   0.0000       0.071752         1.9525
  24   0.0000       0.093218         2.5366

MULLIKEN ATOMIC CHARGES
-----------------------
   0 C :   -0.295043
   1 C :   -0.125207
   2 C :   -0.131132
   3 C :   -0.165249
   4 C :   -0.240774
   5 H :    0.107014
   6 H :    0.102466
   7 H :    0.102597
   8 H :    0.095862
   9 H :    0.085837
  10 H :    0.057827
  11 H :    0.065269
  12 H :    0.101800
  13 H :    0.118840
  14 H :    0.119892
Sum of atomic charges:   -0.0000000

LOEWDIN ATOMIC CHARGES
----------------------
   0 C :   -0.335800
   1 C :   -0.231275
   2 C :   -0.147865
   3 C :   -0.159267
   4 C :   -0.343190
   5 H :    0.119735
   6 H :    0.117242
   7 H :    0.118105
   8 H :    0.125472
   9 H :    0.118613
  10 H :    0.116548
  11 H :    0.117630
  12 H :    0.124506
  13 H :    0.131272
  14 H :    0.128274

  Mayer bond orders larger than 0.100000
B(  0-C ,  1-C ) :   1.1296 B(  0-C ,  5-H ) :   0.9580 B(  0-C ,  6-H ) :   0.9576
B(  0-C ,  7-H ) :   0.9513 B(  1-C ,  2-C ) :   1.0873 B(  1-C ,  8-H ) :   0.9092
B(  1-C ,  9-H ) :   0.9126 B(  2-C ,  3-C ) :   2.0080 B(  2-C , 10-H ) :   0.9275
B(  3-C ,  4-C ) :   1.1109 B(  3-C , 11-H ) :   0.9297 B(  4-C , 12-H ) :   0.9462
B(  4-C , 13-H ) :   0.9364 B(  4-C , 14-H ) :   0.9390

Dispersion correction           -0.009788120
FINAL SINGLE POINT ENERGY      -196.029181258437

DIPOLE MOMENT
-------------

Method             : SCF
Type of density    : Electron Density
Multiplicity       :   1
Irrep              :   0
Energy             :  -196.0772268020124898 Eh
Relativity type    :
Basis              : AO
                                X                 Y                 Z
Electronic contribution:      1.197301311      -1.750122676      -0.295299262
Nuclear contribution   :     -1.217219497       1.865175169       0.268900514
                        -----------------------------------------
Total Dipole Moment    :     -0.019918185       0.115052493      -0.026398748
                        -----------------------------------------
Magnitude (a.u.)       :      0.119710919
Magnitude (Debye)      :      0.304280975

Rotational constants in cm-1:             0.381288             0.087909             0.079809
Rotational constants in MHz :         11430.736700          2635.442549          2392.609995

                             ****ORCA TERMINATED NORMALLY****
TOTAL RUN TIME: 0 days 0 hours 0 minutes 6 seconds 162 msec
