                         Program Version 6.0.0  -   RELEASE  -
|  1> ! wb97x-v def2-tzvp def2/J RIJCOSX DEFGRID2 scfconv7 GCP(DFT/TZ) printgap
|  2> %output
|  3>     printlevel normal
|  4> end
|  5> * xyz 0 1
|  6> C -2.2003734474556658 0.11429781655633366 0.3820197678006757
|  7> C -1.009000184041548 0.4625517145389207 -0.5184278202660342
|  8> C 0.0030731854190209754 -0.6421833322318812 -0.5493956034843628
|  9> C 1.276083569118262 -0.602301541213481 -0.14012432833402627
| 10> C 2.013548105224169 0.5631960611108782 0.4383753714915485
| 11> H -1.88033648145049 -0.001390969286008667 1.4225649756217715
| 12> H -2.666137315288726 -0.825511279212218 0.06694744755351233
| 13> H -2.963340392282273 0.8984445056376604 0.34457417656653516
| 14> H -1.379342365762424 0.6297460794275702 -1.5389075098874472
| 15> H -0.5585302033431798 1.4030718490782066 -0.1885633653399433
| 16> H -0.3704516157596947 -1.590442529335086 -0.939184886104051
| 17> H 1.8611477022100988 -1.517733007312988 -0.23166738491296782
| 18> H 2.43877478052975 0.30055276854593865 1.4145781581920271
| 19> H 1.3847087331494723 1.4465624202957839 0.5675243431748509
| 20> H 2.8613651665592474 0.8396335619106087 -0.2008510689336132
| 21> *
| 22>
| 23>                          ****END OF INPUT****

CARTESIAN COORDINATES (ANGSTROEM)
---------------------------------
  C     -2.200373    0.114298    0.382020
  C     -1.009000    0.462552   -0.518428
  C      0.003073   -0.642183   -0.549396
  C      1.276084   -0.602302   -0.140124
  C      2.013548    0.563196    0.438375
  H     -1.880336   -0.001391    1.422565
  H     -2.666137   -0.825511    0.066947
  H     -2.963340    0.898445    0.344574
  H     -1.379342    0.629746   -1.538908
  H     -0.558530    1.403072   -0.188563
  H     -0.370452   -1.590443   -0.939185
  H      1.861148   -1.517733   -0.231667
  H      2.438775    0.300553    1.414578
  H      1.384709    1.446562    0.567524
  H      2.861365    0.839634   -0.200851

 Total Charge           Charge          ....    0
 Multiplicity           Mult            ....    1
 Number of Electrons    NEL             ....   40
 Basis Dimension        Dim             ....  215

ORBITAL ENERGIES
----------------

  NO   OCC          E(Eh)            E(eV)
   0   2.0000     -12.043811      -327.7288
   1   2.0000     -12.042742      -327.6997
   2   2.0000     -12.038966      -327.5969
   3   2.0000     -12.038247      -327.5773
   4   2.0000     -12.034774      -327.4829
   5   2.0000      -1.318786       -35.8860
   6   2.0000      -1.256271       -34.1849
   7   2.0000      -1.182927       -32.1891
   8   2.0000      -1.104376       -30.0516
   9   2.0000      -0.989127       -26.9155
  10   2.0000      -0.918159       -24.9844
  11   2.0000      -0.885263       -24.0892
  12   2.0000      -0.855736       -23.2858
  13   2.0000      -0.830312       -22.5939
  14   2.0000      -0.822316       -22.3764
  15   2.0000      -0.811358       -22.0782
  16   2.0000      -0.799322       -21.7507
  17   2.0000      -0.769954       -20.9515
  18   2.0000      -0.759112       -20.6565
  19   2.0000      -0.637153       -17.3378
  20   0.0000      -0.192650        -5.2423
  21   0.0000      -0.031340        -0.8528
  22   0.0000      -0.004158        -0.1131
  23   0.0000       0.004325         0.1177
  24   0.0000       0.009862         0.2684

MULLIKEN ATOMIC CHARGES
-----------------------
   0 C :   -0.334228
   1 C :   -0.114254
   2 C :   -0.165830
   3 C :   -0.134394
   4 C :   -0.300899
   5 H :    0.109355
   6 H :    0.104969
   7 H :    0.110475
   8 H :    0.095414
   9 H :    0.082712
  10 H :    0.106495
  11 H :    0.106419
  12 H :    0.115593
  13 H :    0.101254
  14 H :    0.116920
Sum of atomic charges:    0.0000000

LOEWDIN ATOMIC CHARGES
----------------------
   0 C :   -0.300660
   1 C :   -0.275810
   2 C :   -0.186146
   3 C :   -0.206143
   4 C :   -0.291169
   5 H :    0.117195
   6 H :    0.116196
   7 H :    0.114533
   8 H :    0.137445
   9 H :    0.131058
  10 H :    0.139736
  11 H :    0.137470
  12 H :    0.123982
  13 H :    0.117720
  14 H :    0.124592

  Mayer bond orders larger than 0.100000
B(  0-C ,  1-C ) :   0.9706 B(  0-C ,  5-H ) :   0.9785 B(  0-C ,  6-H ) :   0.9829
B(  0-C ,  7-H ) :   0.9794 B(  1-C ,  2-C ) :   0.9598 B(  1-C ,  8-H ) :   0.9721
B(  1-C ,  9-H ) :   0.9838 B(  2-C ,  3-C ) :   1.9741 B(  2-C , 10-H ) :   0.9578
B(  3-C ,  4-C ) :   0.9560 B(  3-C , 11-H ) :   0.9641 B(  4-C , 12-H ) :   0.9722
B(  4-C , 13-H ) :   0.9898 B(  4-C , 14-H ) :   0.9707

FINAL SINGLE POINT ENERGY      -196.536599580164

DIPOLE MOMENT
-------------

Method             : SCF
Type of density    : Electron Density
Multiplicity       :   1
Irrep              :   0
Energy             :  -196.5462193481643283 Eh
Relativity type    :
Basis              : AO
                                X                 Y                 Z
Electronic contribution:      1.159345555      -1.342002125      -1.171809440
Nuclear contribution   :     -1.155847807       1.439432530       1.198678362
                        -----------------------------------------
Total Dipole Moment    :      0.003497748       0.097430405       0.026868921
                        -----------------------------------------
Magnitude (a.u.)       :      0.101127924
Magnitude (Debye)      :      0.257046756

Rotational constants in cm-1:             0.366270             0.086680             0.079247
Rotational constants in MHz :         10980.487329          2598.593091          2375.766532

                             ****ORCA TERMINATED NORMALLY****
TOTAL RUN TIME: 0 days 0 hours 1 minutes 6 seconds 378 msec
