                         Program Version 6.0.0  -   RELEASE  -
|  1> ! wb97x-v def2-tzvp def2/J RIJCOSX DEFGRID2 scfconv7 GCP(DFT/TZ) printgap
|  2> %output
|  3>     printlevel normal
|  4> end
|  5> %cpcm
|  6>     smd true
|  7>     smdsolvent "water"
|  8> end
|  9> * xyz 0 1
| 10> C -2.2003734474556658 0.11429781655633366 0.3820197678006757
| 11> C -1.009000184041548 0.4625517145389207 -0.5184278202660342
| 12> C 0.0030731854190209754 -0.6421833322318812 -0.5493956034843628
| 13> C 1.276083569118262 -0.602301541213481 -0.14012432833402627
| 14> C 2.013548105224169 0.5631960611108782 0.4383753714915485
| 15> H -1.88033648145049 -0.001390969286008667 1.4225649756217715
| 16> H -2.666137315288726 -0.825511279212218 0.06694744755351233
| 17> H -2.963340392282273 0.8984445056376604 0.34457417656653516
| 18> H -1.379342365762424 0.6297460794275702 -1.5389075098874472
| 19> H -0.5585302033431798 1.4030718490782066 -0.1885633653399433
| 20> H -0.3704516157596947 -1.590442529335086 -0.939184886104051
| 21> H 1.8611477022100988 -1.517733007312988 -0.23166738491296782
| 22> H 2.43877478052975 0.30055276854593865 1.4145781581920271
| 23> H 1.3847087331494723 1.4465624202957839 0.5675243431748509
| 24> H 2.8613651665592474 0.8396335619106087 -0.2008510689336132
| 25> *
| 26>
| 27>                          ****END OF INPUT****

CARTESIAN COORDINATES (ANGSTROEM)
---------------------------------
  C     -2.200373    0.114298    0.382020
  C     -1.009000    0.462552   -0.518428
  C      0.003073   -0.642183   -0.549396
  C      1.276084   -0.602302   -0.140124
  C      2.013548    0.563196    0.438375
  H     -1.880336   -0.001391    1.422565
  H     -2.666137   -0.825511    0.066947
  H     -2.963340    0.898445    0.344574
  H     -1.379342    0.629746   -1.538908
  H     -0.558530    1.403072   -0.188563
  H     -0.370452   -1.590443   -0.939185
  H      1.861148   -1.517733   -0.231667
  H      2.438775    0.300553    1.414578
  H      1.384709    1.446562    0.567524
  H      2.861365    0.839634   -0.200851

 Total Charge           Charge          ....    0
 Multiplicity           Mult            ....    1
 Number of Electrons    NEL             ....   40
 Basis Dimension        Dim             ....  215

ORBITAL ENERGIES
----------------

  NO   OCC          E(Eh)            E(eV)
   0   2.0000     -12.040097      -327.6277
   1   2.0000     -12.036850      -327.5393
   2   2.0000     -12.035422      -327.5005
   3   2.0000     -12.030633      -327.3702
   4   2.0000     -12.027680      -327.2898
   5   2.0000      -1.315488       -35.7962
   6   2.0000      -1.250497       -34.0278
   7   2.0000      -1.177617       -32.0446
   8   2.0000      -1.098712       -29.8975
   9   2.0000      -0.983886       -26.7729
  10   2.0000      -0.913597       -24.8602
  11   2.0000      -0.880078       -23.9481
  12   2.0000      -0.849253       -23.1094
  13   2.0000      -0.823903       -22.4196
  14   2.0000      -0.815481       -22.1904
  15   2.0000      -0.805233       -21.9115
  16   2.0000      -0.792353       -21.5610
  17   2.0000      -0.763649       -20.7799
  18   2.0000      -0.752653       -20.4807
  19   2.0000      -0.636157       -17.3107
  20   0.0000      -0.191218        -5.2033
  21   0.0000      -0.024856        -0.6764
  22   0.0000       0.006624         0.1803
  23   0.0000       0.010619         0.2889
  24   0.0000       0.016816         0.4576

MULLIKEN ATOMIC CHARGES
-----------------------
   0 C :   -0.385025
   1 C :   -0.125136
   2 C :   -0.231154
   3 C :   -0.183177
   4 C :   -0.345707
   5 H :    0.119967
   6 H :    0.122798
   7 H :    0.128188
   8 H :    0.109595
   9 H :    0.108436
  10 H :    0.142740
  11 H :    0.141532
  12 H :    0.134101
  13 H :    0.128346
  14 H :    0.134496
Sum of atomic charges:    0.0000000

LOEWDIN ATOMIC CHARGES
----------------------
   0 C :   -0.307088
   1 C :   -0.277795
   2 C :   -0.200003
   3 C :   -0.219247
   4 C :   -0.296480
   5 H :    0.117955
   6 H :    0.119114
   7 H :    0.118067
   8 H :    0.140901
   9 H :    0.136392
  10 H :    0.145211
  11 H :    0.142973
  12 H :    0.128247
  13 H :    0.123095
  14 H :    0.128657

  Mayer bond orders larger than 0.100000
B(  0-C ,  1-C ) :   0.9632 B(  0-C ,  5-H ) :   0.9763 B(  0-C ,  6-H ) :   0.9805
B(  0-C ,  7-H ) :   0.9768 B(  1-C ,  2-C ) :   0.9566 B(  1-C ,  8-H ) :   0.9662
B(  1-C ,  9-H ) :   0.9830 B(  2-C ,  3-C ) :   1.9463 B(  2-C , 10-H ) :   0.9593
B(  3-C ,  4-C ) :   0.9555 B(  3-C , 11-H ) :   0.9653 B(  4-C , 12-H ) :   0.9671
B(  4-C , 13-H ) :   0.9870 B(  4-C , 14-H ) :   0.9655

FINAL SINGLE POINT ENERGY      -196.535245417673

DIPOLE MOMENT
-------------

Method             : SCF
Type of density    : Electron Density
Multiplicity       :   1
Irrep              :   0
Energy             :  -196.5448651856732454 Eh
Relativity type    :
Basis              : AO
                                X                 Y                 Z
Electronic contribution:      1.153328615      -1.285859358      -1.165135118
Nuclear contribution   :     -1.155847807       1.439432530       1.198678362
                        -----------------------------------------
Total Dipole Moment    :     -0.002519192       0.153573172       0.033543243
                        -----------------------------------------
Magnitude (a.u.)       :      0.157213913
Magnitude (Debye)      :      0.399606011

Rotational constants in cm-1:             0.366270             0.086680             0.079247
Rotational constants in MHz :         10980.487329          2598.593091          2375.766532

                             ****ORCA TERMINATED NORMALLY****
TOTAL RUN TIME: 0 days 0 hours 1 minutes 3 seconds 420 msec
