                         Program Version 6.0.0  -   RELEASE  -
|  1> ! pbe def2-sv(p) def2/J RI DEFGRID1 loosescf d4 GCP(DFT/SV(P)) printgap
|  2> %output
|  3>     printlevel normal
|  4> end
|  5> * xyz 0 1
|  6> C -2.3556535859 -1.0060525617 0.3609234786
|  7> C -1.0807767664 -0.2603556828 0.8036908867
|  8> H -1.2999000029 0.186010028 1.7826150716
|  9> C -0.6753086883 0.8679917983 -0.1644748766
| 10> H -0.6705323508 0.5115843304 -1.1998126211
| 11> C 0.7540378968 1.2947690695 0.1981731419
| 12> H 0.7871180918 1.5088832227 1.2818493663
| 13> C 1.7214949465 0.1298175229 -0.0977861999
| 14> H 2.0469365309 0.1979969618 -1.1409182962
| 15> C 0.9927875293 -1.2243155545 0.0632234864
| 16> H 1.7057110151 -1.9708949154 0.4533209748
| 17> O -0.0061399993 -1.1721644094 1.044564143
| 18> O 0.5206349889 -1.6092409539 -1.188355397
| 19> O 2.8871841941 0.2113289762 0.6794589073
| 20> O 1.0842040295 2.4532990517 -0.5240607664
| 21> O -1.6063764843 1.9144609045 -0.1233303832
| 22> O -2.2412907154 -1.670996489 -0.8742529157
| 23> H -3.1784178423 -0.2851617326 0.3487404772
| 24> H -2.5634436161 -1.7834474031 1.0997250616
| 25> H -0.2495147566 -2.2008853518 -1.0832630862
| 26> H 2.6768373429 0.0461368882 1.6106080263
| 27> H 2.0194732529 2.6603256004 -0.3839356076
| 28> H -1.4062397683 2.5131920483 0.6097617968
| 29> H -2.3315378332 -1.0334993448 -1.5955472476
| 30> *
| 31>
| 32>                          ****END OF INPUT****

CARTESIAN COORDINATES (ANGSTROEM)
---------------------------------
  C     -2.355654   -1.006053    0.360923
  C     -1.080777   -0.260356    0.803691
  H     -1.299900    0.186010    1.782615
  C     -0.675309    0.867992   -0.164475
  H     -0.670532    0.511584   -1.199813
  C      0.754038    1.294769    0.198173
  H      0.787118    1.508883    1.281849
  C      1.721495    0.129818   -0.097786
  H      2.046937    0.197997   -1.140918
  C      0.992788   -1.224316    0.063223
  H      1.705711   -1.970895    0.453321
  O     -0.006140   -1.172164    1.044564
  O      0.520635   -1.609241   -1.188355
  O      2.887184    0.211329    0.679459
  O      1.084204    2.453299   -0.524061
  O     -1.606376    1.914461   -0.123330
  O     -2.241291   -1.670996   -0.874253
  H     -3.178418   -0.285162    0.348740
  H     -2.563444   -1.783447    1.099725
  H     -0.249515   -2.200885   -1.083263
  H      2.676837    0.046137    1.610608
  H      2.019473    2.660326   -0.383936
  H     -1.406240    2.513192    0.609762
  H     -2.331538   -1.033499   -1.595547

 Total Charge           Charge          ....    0
 Multiplicity           Mult            ....    1
 Number of Electrons    NEL             ....   96
 Basis Dimension        Dim             ....  192

ORBITAL ENERGIES
----------------

  NO   OCC          E(Eh)            E(eV)
   0   2.0000     -18.773584      -510.8552
   1   2.0000     -18.772041      -510.8132
   2   2.0000     -18.758760      -510.4518
   3   2.0000     -18.756734      -510.3967
   4   2.0000     -18.754132      -510.3259
   5   2.0000     -18.749618      -510.2031
   6   2.0000      -9.982413      -271.6353
   7   2.0000      -9.948746      -270.7191
   8   2.0000      -9.948588      -270.7148
   9   2.0000      -9.947537      -270.6862
  10   2.0000      -9.940368      -270.4912
  11   2.0000      -9.940014      -270.4815
  12   2.0000      -0.982719       -26.7412
  13   2.0000      -0.946580       -25.7578
  14   2.0000      -0.942747       -25.6534
  15   2.0000      -0.934745       -25.4357
  16   2.0000      -0.920278       -25.0420
  17   2.0000      -0.904824       -24.6215
  18   2.0000      -0.708196       -19.2710
  19   2.0000      -0.692143       -18.8342
  20   2.0000      -0.628649       -17.1064
  21   2.0000      -0.586469       -15.9586
  22   2.0000      -0.574016       -15.6198
  23   2.0000      -0.532453       -14.4888
  24   2.0000      -0.502703       -13.6793
  25   2.0000      -0.495758       -13.4903
  26   2.0000      -0.471157       -12.8208
  27   2.0000      -0.458657       -12.4807
  28   2.0000      -0.448533       -12.2052
  29   2.0000      -0.434440       -11.8217
  30   2.0000      -0.412693       -11.2300
  31   2.0000      -0.410933       -11.1820
  32   2.0000      -0.397229       -10.8092
  33   2.0000      -0.376867       -10.2551
  34   2.0000      -0.357256        -9.7214
  35   2.0000      -0.353647        -9.6232
  36   2.0000      -0.335046        -9.1171
  37   2.0000      -0.313764        -8.5379
  38   2.0000      -0.312143        -8.4939
  39   2.0000      -0.298516        -8.1230
  40   2.0000      -0.285790        -7.7767
  41   2.0000      -0.277065        -7.5393
  42   2.0000      -0.259839        -7.0706
  43   2.0000      -0.243359        -6.6221
  44   2.0000      -0.240084        -6.5330
  45   2.0000      -0.227090        -6.1794
  46   2.0000      -0.215126        -5.8539
  47   2.0000      -0.202868        -5.5203
  48   0.0000       0.014485         0.3942
  49   0.0000       0.016865         0.4589
  50   0.0000       0.033034         0.8989
  51   0.0000       0.040877         1.1123
  52   0.0000       0.061456         1.6723

MULLIKEN ATOMIC CHARGES
-----------------------
   0 C :    0.071275
   1 C :    0.044378
   2 H :    0.051023
   3 C :    0.027116
   4 H :    0.065381
   5 C :    0.038687
   6 H :    0.023121
   7 C :    0.075523
   8 H :    0.086780
   9 C :    0.144673
  10 H :    0.060366
  11 O :   -0.317160
  12 O :   -0.417389
  13 O :   -0.421695
  14 O :   -0.403867
  15 O :   -0.403386
  16 O :   -0.437883
  17 H :    0.088839
  18 H :    0.095419
  19 H :    0.302989
  20 H :    0.299840
  21 H :    0.306390
  22 H :    0.302971
  23 H :    0.316611
Sum of atomic charges:    0.0000000

LOEWDIN ATOMIC CHARGES
----------------------
   0 C :   -0.130705
   1 C :   -0.078871
   2 H :    0.111316
   3 C :   -0.081784
   4 H :    0.113901
   5 C :   -0.076897
   6 H :    0.090420
   7 C :   -0.088897
   8 H :    0.128244
   9 C :   -0.008204
  10 H :    0.094286
  11 O :   -0.151062
  12 O :   -0.323469
  13 O :   -0.313811
  14 O :   -0.318326
  15 O :   -0.306006
  16 O :   -0.316967
  17 H :    0.111960
  18 H :    0.118932
  19 H :    0.272271
  20 H :    0.283730
  21 H :    0.289424
  22 H :    0.287685
  23 H :    0.292830

  Mayer bond orders larger than 0.100000
B(  0-C ,  1-C ) :   1.0358 B(  0-C , 16-O ) :   1.0650 B(  0-C , 17-H ) :   0.9145
B(  0-C , 18-H ) :   0.9200 B(  1-C ,  2-H ) :   0.8706 B(  1-C ,  3-C ) :   0.9445
B(  1-C , 11-O ) :   0.9620 B(  3-C ,  4-H ) :   0.8590 B(  3-C ,  5-C ) :   1.0461
B(  3-C , 15-O ) :   1.0577 B(  5-C ,  6-H ) :   0.8518 B(  5-C ,  7-C ) :   1.0170
B(  5-C , 14-O ) :   1.1112 B(  7-C ,  8-H ) :   0.8636 B(  7-C ,  9-C ) :   0.9886
B(  7-C , 13-O ) :   1.0329 B(  9-C , 10-H ) :   0.8966 B(  9-C , 11-O ) :   1.0701
B(  9-C , 12-O ) :   1.0939 B( 12-O , 19-H ) :   0.7883 B( 13-O , 20-H ) :   0.8472
B( 14-O , 21-H ) :   0.8423 B( 15-O , 22-H ) :   0.8459 B( 16-O , 19-H ) :   0.1031
B( 16-O , 23-H ) :   0.8371

Dispersion correction           -0.025105650
FINAL SINGLE POINT ENERGY      -685.693029988587

DIPOLE MOMENT
-------------

Method             : SCF
Type of density    : Electron Density
Multiplicity       :   1
Irrep              :   0
Energy             :  -685.8246769400117273 Eh
Relativity type    :
Basis              : AO
                                X                 Y                 Z
Electronic contribution:      2.059438688       0.035207500      -0.749235787
Nuclear contribution   :     -2.301736562       0.330461818       1.658285599
                        -----------------------------------------
Total Dipole Moment    :     -0.242297874       0.365669319       0.909049812
                        -----------------------------------------
Magnitude (a.u.)       :      1.009353195
Magnitude (Debye)      :      2.565571932

Rotational constants in cm-1:             0.042355             0.028160             0.020563
Rotational constants in MHz :          1269.758215           844.206896           616.458977

                             ****ORCA TERMINATED NORMALLY****
TOTAL RUN TIME: 0 days 0 hours 0 minutes 12 seconds 87 msec
