                         Program Version 6.0.0  -   RELEASE  -
|  1> ! wb97x-v def2-tzvp def2/J RIJCOSX DEFGRID2 scfconv7 GCP(DFT/TZ) printgap
|  2> %output
|  3>     printlevel normal
|  4> end
|  5> * xyz 0 1
|  6> C 2.1202790780020764 0.029604131020089696 0.001526791168329216
|  7> N 0.6602270233005904 -0.005978687429810914 -0.002331504072349411
|  8> C -0.1366167316076466 -1.1283657988522238 3.6315838430488754e-05
|  9> C -1.4280421555678455 -0.6678114437146268 0.0012052597913563788
| 10> N -1.4467263590084187 0.7128553106902804 0.00033951204759608315
| 11> C -0.16982854635689482 1.0690574558445105 -0.0015769267224519312
| 12> H 2.4856502207613653 0.519257905071794 0.9077080436834971
| 13> H 2.49584533526702 -0.9934857801992891 -0.028011903247247196
| 14> H 2.4870393286872154 0.5709926526758174 -0.8739752692313599
| 15> H 0.28331414085528966 -2.122892516681543 -1.2180596055644509e-05
| 16> H -2.338493445556076 -1.2502802655440488 0.002115808595804497
| 17> H 0.2082929366886472 2.082982969385689 -0.002686758271556375
| 18> *
| 19>
| 20>                          ****END OF INPUT****

CARTESIAN COORDINATES (ANGSTROEM)
---------------------------------
  C      2.120279    0.029604    0.001527
  N      0.660227   -0.005979   -0.002332
  C     -0.136617   -1.128366    0.000036
  C     -1.428042   -0.667811    0.001205
  N     -1.446726    0.712855    0.000340
  C     -0.169829    1.069057   -0.001577
  H      2.485650    0.519258    0.907708
  H      2.495845   -0.993486   -0.028012
  H      2.487039    0.570993   -0.873975
  H      0.283314   -2.122893   -0.000012
  H     -2.338493   -1.250280    0.002116
  H      0.208293    2.082983   -0.002687

 Total Charge           Charge          ....    0
 Multiplicity           Mult            ....    1
 Number of Electrons    NEL             ....   44
 Basis Dimension        Dim             ....  222

ORBITAL ENERGIES
----------------

  NO   OCC          E(Eh)            E(eV)
   0   2.0000     -16.589167      -451.4142
   1   2.0000     -16.503187      -449.0746
   2   2.0000     -12.104921      -329.3916
   3   2.0000     -12.094451      -329.1067
   4   2.0000     -12.070890      -328.4656
   5   2.0000     -12.053947      -328.0046
   6   2.0000      -1.601152       -43.5696
   7   2.0000      -1.466952       -39.9178
   8   2.0000      -1.291738       -35.1500
   9   2.0000      -1.251107       -34.0443
  10   2.0000      -1.119789       -30.4710
  11   2.0000      -1.080420       -29.3997
  12   2.0000      -1.013358       -27.5749
  13   2.0000      -0.930571       -25.3221
  14   2.0000      -0.926442       -25.2098
  15   2.0000      -0.911004       -24.7897
  16   2.0000      -0.874125       -23.7862
  17   2.0000      -0.860479       -23.4148
  18   2.0000      -0.841369       -22.8948
  19   2.0000      -0.779871       -21.2214
  20   2.0000      -0.737525       -20.0691
  21   2.0000      -0.626584       -17.0502
  22   0.0000      -0.248952        -6.7743
  23   0.0000      -0.185911        -5.0589
  24   0.0000      -0.132436        -3.6038
  25   0.0000      -0.063878        -1.7382
  26   0.0000      -0.029005        -0.7893

MULLIKEN ATOMIC CHARGES
-----------------------
   0 C :   -0.288559
   1 N :    0.011976
   2 C :   -0.131795
   3 C :   -0.123846
   4 N :   -0.272243
   5 C :   -0.010044
   6 H :    0.140964
   7 H :    0.135115
   8 H :    0.140958
   9 H :    0.138480
  10 H :    0.121721
  11 H :    0.137272
Sum of atomic charges:   -0.0000000

LOEWDIN ATOMIC CHARGES
----------------------
   0 C :   -0.253790
   1 N :    0.213186
   2 C :   -0.232071
   3 C :   -0.260714
   4 N :    0.071136
   5 C :   -0.287717
   6 H :    0.120091
   7 H :    0.124030
   8 H :    0.120438
   9 H :    0.130475
  10 H :    0.126787
  11 H :    0.128147

  Mayer bond orders larger than 0.100000
B(  0-C ,  1-N ) :   0.9166 B(  0-C ,  6-H ) :   0.9708 B(  0-C ,  7-H ) :   0.9779
B(  0-C ,  8-H ) :   0.9715 B(  1-N ,  2-C ) :   1.1646 B(  1-N ,  5-C ) :   1.2430
B(  2-C ,  3-C ) :   1.6558 B(  2-C ,  9-H ) :   0.9505 B(  3-C ,  4-N ) :   1.3822
B(  3-C , 10-H ) :   0.9789 B(  4-N ,  5-C ) :   1.6913 B(  5-C , 11-H ) :   0.9652

FINAL SINGLE POINT ENERGY      -265.540772995332

DIPOLE MOMENT
-------------

Method             : SCF
Type of density    : Electron Density
Multiplicity       :   1
Irrep              :   0
Energy             :  -265.5475725613318332 Eh
Relativity type    :
Basis              : AO
                                X                 Y                 Z
Electronic contribution:     -3.695532744       0.696140934      -0.005545014
Nuclear contribution   :      5.318959959      -1.137758964       0.005387021
                        -----------------------------------------
Total Dipole Moment    :      1.623427215      -0.441618030      -0.000157993
                        -----------------------------------------
Magnitude (a.u.)       :      1.682421598
Magnitude (Debye)      :      4.276375852

Rotational constants in cm-1:             0.305443             0.120018             0.087596
Rotational constants in MHz :          9156.952616          3598.047140          2626.065866

                             ****ORCA TERMINATED NORMALLY****
TOTAL RUN TIME: 0 days 0 hours 1 minutes 23 seconds 800 msec
