                         Program Version 6.0.0  -   RELEASE  -
|  1> ! wb97x-v def2-tzvp def2/J RIJCOSX DEFGRID2 scfconv7 GCP(DFT/TZ) printgap
|  2> %output
|  3>     printlevel normal
|  4> end
|  5> %cpcm
|  6>     smd true
|  7>     smdsolvent "water"
|  8> end
|  9> * xyz 0 1
| 10> C 2.1202790780020764 0.029604131020089696 0.001526791168329216
| 11> N 0.6602270233005904 -0.005978687429810914 -0.002331504072349411
| 12> C -0.1366167316076466 -1.1283657988522238 3.6315838430488754e-05
| 13> C -1.4280421555678455 -0.6678114437146268 0.0012052597913563788
| 14> N -1.4467263590084187 0.7128553106902804 0.00033951204759608315
| 15> C -0.16982854635689482 1.0690574558445105 -0.0015769267224519312
| 16> H 2.4856502207613653 0.519257905071794 0.9077080436834971
| 17> H 2.49584533526702 -0.9934857801992891 -0.028011903247247196
| 18> H 2.4870393286872154 0.5709926526758174 -0.8739752692313599
| 19> H 0.28331414085528966 -2.122892516681543 -1.2180596055644509e-05
| 20> H -2.338493445556076 -1.2502802655440488 0.002115808595804497
| 21> H 0.2082929366886472 2.082982969385689 -0.002686758271556375
| 22> *
| 23>
| 24>                          ****END OF INPUT****

CARTESIAN COORDINATES (ANGSTROEM)
---------------------------------
  C      2.120279    0.029604    0.001527
  N      0.660227   -0.005979   -0.002332
  C     -0.136617   -1.128366    0.000036
  C     -1.428042   -0.667811    0.001205
  N     -1.446726    0.712855    0.000340
  C     -0.169829    1.069057   -0.001577
  H      2.485650    0.519258    0.907708
  H      2.495845   -0.993486   -0.028012
  H      2.487039    0.570993   -0.873975
  H      0.283314   -2.122893   -0.000012
  H     -2.338493   -1.250280    0.002116
  H      0.208293    2.082983   -0.002687

 Total Charge           Charge          ....    0
 Multiplicity           Mult            ....    1
 Number of Electrons    NEL             ....   44
 Basis Dimension        Dim             ....  222

ORBITAL ENERGIES
----------------

  NO   OCC          E(Eh)            E(eV)
   0   2.0000     -16.584884      -451.2976
   1   2.0000     -16.512038      -449.3154
   2   2.0000     -12.094486      -329.1077
   3   2.0000     -12.077498      -328.6454
   4   2.0000     -12.068234      -328.3933
   5   2.0000     -12.055406      -328.0443
   6   2.0000      -1.599804       -43.5329
   7   2.0000      -1.469539       -39.9882
   8   2.0000      -1.288680       -35.0668
   9   2.0000      -1.238367       -33.6977
  10   2.0000      -1.119130       -30.4531
  11   2.0000      -1.076472       -29.2923
  12   2.0000      -1.002174       -27.2705
  13   2.0000      -0.921660       -25.0796
  14   2.0000      -0.919445       -25.0194
  15   2.0000      -0.903974       -24.5984
  16   2.0000      -0.874171       -23.7874
  17   2.0000      -0.835908       -22.7462
  18   2.0000      -0.828683       -22.5496
  19   2.0000      -0.790174       -21.5017
  20   2.0000      -0.739728       -20.1290
  21   2.0000      -0.628322       -17.0975
  22   0.0000      -0.249773        -6.7967
  23   0.0000      -0.189849        -5.1661
  24   0.0000      -0.115235        -3.1357
  25   0.0000      -0.058549        -1.5932
  26   0.0000      -0.020489        -0.5575

MULLIKEN ATOMIC CHARGES
-----------------------
   0 C :   -0.310802
   1 N :    0.015570
   2 C :   -0.170512
   3 C :   -0.180268
   4 N :   -0.368266
   5 C :   -0.017931
   6 H :    0.159933
   7 H :    0.166639
   8 H :    0.160548
   9 H :    0.191961
  10 H :    0.165978
  11 H :    0.187151
Sum of atomic charges:   -0.0000000

LOEWDIN ATOMIC CHARGES
----------------------
   0 C :   -0.242844
   1 N :    0.223338
   2 C :   -0.221798
   3 C :   -0.293273
   4 N :    0.008436
   5 C :   -0.283794
   6 H :    0.127552
   7 H :    0.133309
   8 H :    0.128007
   9 H :    0.146257
  10 H :    0.133001
  11 H :    0.141809

  Mayer bond orders larger than 0.100000
B(  0-C ,  1-N ) :   0.8995 B(  0-C ,  6-H ) :   0.9657 B(  0-C ,  7-H ) :   0.9691
B(  0-C ,  8-H ) :   0.9659 B(  1-N ,  2-C ) :   1.1748 B(  1-N ,  5-C ) :   1.2735
B(  2-C ,  3-C ) :   1.6643 B(  2-C ,  9-H ) :   0.9492 B(  3-C ,  4-N ) :   1.3801
B(  3-C , 10-H ) :   0.9631 B(  4-N ,  5-C ) :   1.6668 B(  5-C , 11-H ) :   0.9522

FINAL SINGLE POINT ENERGY      -265.553653234653

DIPOLE MOMENT
-------------

Method             : SCF
Type of density    : Electron Density
Multiplicity       :   1
Irrep              :   0
Energy             :  -265.5604528006530245 Eh
Relativity type    :
Basis              : AO
                                X                 Y                 Z
Electronic contribution:     -3.066478908       0.531507228      -0.005836710
Nuclear contribution   :      5.318959959      -1.137758964       0.005387021
                        -----------------------------------------
Total Dipole Moment    :      2.252481052      -0.606251736      -0.000449689
                        -----------------------------------------
Magnitude (a.u.)       :      2.332640619
Magnitude (Debye)      :      5.929101260

Rotational constants in cm-1:             0.305443             0.120018             0.087596
Rotational constants in MHz :          9156.952616          3598.047140          2626.065866

                             ****ORCA TERMINATED NORMALLY****
TOTAL RUN TIME: 0 days 0 hours 1 minutes 26 seconds 831 msec
