                         Program Version 6.0.0  -   RELEASE  -
|  1> ! pbe def2-sv(p) def2/J RI DEFGRID1 loosescf d4 GCP(DFT/SV(P)) printgap
|  2> %output
|  3>     printlevel normal
|  4> end
|  5> * xyz 0 1
|  6> C -2.6003715092 -0.979808793 0.000257674
|  7> C -1.1555394612 -0.5681060217 0.0003932723
|  8> C -0.1863725612 -1.5629881539 -0.0001760213
|  9> C 1.1638402204 -1.2691272067 -0.0004681781
| 10> C 1.5693673944 0.0580437763 2.14666e-05
| 11> C 0.6090461373 1.0615431591 0.0002871006
| 12> C -0.7466453339 0.7684266697 0.0001556159
| 13> C -1.7353507497 1.8973587464 -0.000501116
| 14> O 2.8843808652 0.426146608 0.0002050984
| 15> H -3.2680569388 -0.1263446888 0.0166847461
| 16> H -2.8173912802 -1.5716538886 -0.8879333626
| 17> H -2.809737307 -1.5998934497 0.8707412013
| 18> H -0.4987824862 -2.5974478551 -0.0005308102
| 19> H 1.8940886723 -2.0655549144 -0.0009867552
| 20> H 0.9481505296 2.0866789618 0.0006163375
| 21> H -2.3724797615 1.8494823517 -0.8820048328
| 22> H -2.3696137366 1.8532298894 0.8833027209
| 23> H -1.2166629511 2.852041598 -0.0032166644
| 24> H 3.4518975289 -0.3587351647 0.0004314107
| 25> *
| 26>
| 27>                          ****END OF INPUT****

CARTESIAN COORDINATES (ANGSTROEM)
---------------------------------
  C     -2.600372   -0.979809    0.000258
  C     -1.155539   -0.568106    0.000393
  C     -0.186373   -1.562988   -0.000176
  C      1.163840   -1.269127   -0.000468
  C      1.569367    0.058044    0.000021
  C      0.609046    1.061543    0.000287
  C     -0.746645    0.768427    0.000156
  C     -1.735351    1.897359   -0.000501
  O      2.884381    0.426147    0.000205
  H     -3.268057   -0.126345    0.016685
  H     -2.817391   -1.571654   -0.887933
  H     -2.809737   -1.599893    0.870741
  H     -0.498782   -2.597448   -0.000531
  H      1.894089   -2.065555   -0.000987
  H      0.948151    2.086679    0.000616
  H     -2.372480    1.849482   -0.882005
  H     -2.369614    1.853230    0.883303
  H     -1.216663    2.852042   -0.003217
  H      3.451898   -0.358735    0.000431

 Total Charge           Charge          ....    0
 Multiplicity           Mult            ....    1
 Number of Electrons    NEL             ....   66
 Basis Dimension        Dim             ....  146

ORBITAL ENERGIES
----------------

  NO   OCC          E(Eh)            E(eV)
   0   2.0000     -18.775331      -510.9027
   1   2.0000      -9.943351      -270.5723
   2   2.0000      -9.896445      -269.2960
   3   2.0000      -9.888397      -269.0770
   4   2.0000      -9.884738      -268.9774
   5   2.0000      -9.883873      -268.9539
   6   2.0000      -9.880197      -268.8538
   7   2.0000      -9.878220      -268.8000
   8   2.0000      -9.876885      -268.7637
   9   2.0000      -0.955202       -25.9924
  10   2.0000      -0.772396       -21.0180
  11   2.0000      -0.693087       -18.8599
  12   2.0000      -0.682622       -18.5751
  13   2.0000      -0.625200       -17.0126
  14   2.0000      -0.596402       -16.2289
  15   2.0000      -0.541815       -14.7435
  16   2.0000      -0.526884       -14.3372
  17   2.0000      -0.471727       -12.8363
  18   2.0000      -0.435268       -11.8442
  19   2.0000      -0.412972       -11.2375
  20   2.0000      -0.385929       -10.5017
  21   2.0000      -0.381975       -10.3941
  22   2.0000      -0.362386        -9.8610
  23   2.0000      -0.359547        -9.7838
  24   2.0000      -0.351168        -9.5558
  25   2.0000      -0.349534        -9.5113
  26   2.0000      -0.336685        -9.1617
  27   2.0000      -0.316823        -8.6212
  28   2.0000      -0.300175        -8.1682
  29   2.0000      -0.285204        -7.7608
  30   2.0000      -0.275309        -7.4916
  31   2.0000      -0.216333        -5.8867
  32   2.0000      -0.182848        -4.9755
  33   0.0000      -0.026505        -0.7212
  34   0.0000      -0.013267        -0.3610
  35   0.0000       0.027354         0.7443
  36   0.0000       0.047337         1.2881
  37   0.0000       0.062919         1.7121

MULLIKEN ATOMIC CHARGES
-----------------------
   0 C :   -0.227568
   1 C :   -0.002381
   2 C :   -0.133425
   3 C :   -0.164443
   4 C :    0.268083
   5 C :   -0.220170
   6 C :    0.006207
   7 C :   -0.233541
   8 O :   -0.340954
   9 H :    0.096416
  10 H :    0.110634
  11 H :    0.110299
  12 H :    0.031108
  13 H :    0.021775
  14 H :    0.026974
  15 H :    0.117529
  16 H :    0.117906
  17 H :    0.101008
  18 H :    0.314543
Sum of atomic charges:    0.0000000

LOEWDIN ATOMIC CHARGES
----------------------
   0 C :   -0.325540
   1 C :   -0.070516
   2 C :   -0.114215
   3 C :   -0.181221
   4 C :    0.020122
   5 C :   -0.151540
   6 C :   -0.041076
   7 C :   -0.322743
   8 O :   -0.242128
   9 H :    0.121858
  10 H :    0.130033
  11 H :    0.129848
  12 H :    0.119717
  13 H :    0.118013
  14 H :    0.126598
  15 H :    0.130800
  16 H :    0.130857
  17 H :    0.125001
  18 H :    0.296132

  Mayer bond orders larger than 0.100000
B(  0-C ,  1-C ) :   1.1218 B(  0-C ,  9-H ) :   0.9306 B(  0-C , 10-H ) :   0.9368
B(  0-C , 11-H ) :   0.9372 B(  1-C ,  2-C ) :   1.3826 B(  1-C ,  6-C ) :   1.4089
B(  2-C ,  3-C ) :   1.3565 B(  2-C , 12-H ) :   0.9627 B(  3-C ,  4-C ) :   1.3059
B(  3-C , 13-H ) :   0.9607 B(  4-C ,  5-C ) :   1.3371 B(  4-C ,  8-O ) :   1.1795
B(  5-C ,  6-C ) :   1.3720 B(  5-C , 14-H ) :   0.9617 B(  6-C ,  7-C ) :   1.1208
B(  7-C , 15-H ) :   0.9272 B(  7-C , 16-H ) :   0.9270 B(  7-C , 17-H ) :   0.9382
B(  8-O , 18-H ) :   0.8440

Dispersion correction           -0.019150248
FINAL SINGLE POINT ENERGY      -385.237858223045

DIPOLE MOMENT
-------------

Method             : SCF
Type of density    : Electron Density
Multiplicity       :   1
Irrep              :   0
Energy             :  -385.2963427785060162 Eh
Relativity type    :
Basis              : AO
                                X                 Y                 Z
Electronic contribution:      8.472303992      -0.752007962       0.002072400
Nuclear contribution   :     -8.455736990       0.308220880      -0.002713905
                        -----------------------------------------
Total Dipole Moment    :      0.016567002      -0.443787082      -0.000641506
                        -----------------------------------------
Magnitude (a.u.)       :      0.444096669
Magnitude (Debye)      :      1.128804025

Rotational constants in cm-1:             0.099255             0.043966             0.030818
Rotational constants in MHz :          2975.581554          1318.059938           923.895744

                             ****ORCA TERMINATED NORMALLY****
TOTAL RUN TIME: 0 days 0 hours 0 minutes 8 seconds 223 msec
