                         Program Version 6.0.0  -   RELEASE  -
|  1> ! r2scan-3c def2/J RI DEFGRID2 scfconv6 printgap
|  2> %output
|  3>     printlevel normal
|  4> end
|  5> * xyz 0 1
|  6> C -2.9754586152 0.6395042839 -0.7520992183
|  7> C -2.2677574118 0.3600834166 0.575823941
|  8> C -0.8522139996 -0.0802389564 0.3333913157
|  9> C -0.5506848685 -1.4235607084 0.1393801335
| 10> C 0.7478413325 -1.8169778789 -0.1252264127
| 11> C 1.7645611563 -0.8815979627 -0.2028867079
| 12> C 1.4736934945 0.4636284217 -0.0127502585
| 13> C 0.1661761296 0.8556775925 0.2533607085
| 14> O 2.4295528595 1.4327931695 -0.0754548129
| 15> H -2.4541145365 1.4216355185 -1.2989988673
| 16> H -3.9992940057 0.9595052504 -0.5762857426
| 17> H -2.9902692479 -0.2566254783 -1.3680260682
| 18> H -2.8088711654 -0.4195559103 1.1147797323
| 19> H -2.2731159908 1.266265222 1.1837128541
| 20> H -1.3366384438 -2.1614901489 0.199073799
| 21> H 0.9757002967 -2.8621144666 -0.2723423758
| 22> H 2.7778306933 -1.1951861893 -0.4086027421
| 23> H -0.0349390505 1.9064013134 0.3985659155
| 24> H 3.295767842 1.0421955129 -0.2646527831
| 25> *
| 26>
| 27>                          ****END OF INPUT****

CARTESIAN COORDINATES (ANGSTROEM)
---------------------------------
  C     -2.975459    0.639504   -0.752099
  C     -2.267757    0.360083    0.575824
  C     -0.852214   -0.080239    0.333391
  C     -0.550685   -1.423561    0.139380
  C      0.747841   -1.816978   -0.125226
  C      1.764561   -0.881598   -0.202887
  C      1.473693    0.463628   -0.012750
  C      0.166176    0.855678    0.253361
  O      2.429553    1.432793   -0.075455
  H     -2.454115    1.421636   -1.298999
  H     -3.999294    0.959505   -0.576286
  H     -2.990269   -0.256625   -1.368026
  H     -2.808871   -0.419556    1.114780
  H     -2.273116    1.266265    1.183713
  H     -1.336638   -2.161490    0.199074
  H      0.975700   -2.862114   -0.272342
  H      2.777831   -1.195186   -0.408603
  H     -0.034939    1.906401    0.398566
  H      3.295768    1.042196   -0.264653

 Total Charge           Charge          ....    0
 Multiplicity           Mult            ....    1
 Number of Electrons    NEL             ....   66
 Basis Dimension        Dim             ....  226

ORBITAL ENERGIES
----------------

  NO   OCC          E(Eh)            E(eV)
   0   2.0000     -18.984214      -516.5867
   1   2.0000     -10.094745      -274.6920
   2   2.0000     -10.040223      -273.2084
   3   2.0000     -10.034697      -273.0580
   4   2.0000     -10.032517      -272.9987
   5   2.0000     -10.030787      -272.9516
   6   2.0000     -10.024893      -272.7912
   7   2.0000     -10.022463      -272.7251
   8   2.0000     -10.020035      -272.6590
   9   2.0000      -1.027303       -27.9543
  10   2.0000      -0.824860       -22.4456
  11   2.0000      -0.755351       -20.5541
  12   2.0000      -0.710659       -19.3380
  13   2.0000      -0.689935       -18.7741
  14   2.0000      -0.607208       -16.5230
  15   2.0000      -0.575952       -15.6724
  16   2.0000      -0.565251       -15.3813
  17   2.0000      -0.495335       -13.4788
  18   2.0000      -0.466648       -12.6981
  19   2.0000      -0.447325       -12.1723
  20   2.0000      -0.415890       -11.3169
  21   2.0000      -0.401869       -10.9354
  22   2.0000      -0.388422       -10.5695
  23   2.0000      -0.381437       -10.3794
  24   2.0000      -0.361705        -9.8425
  25   2.0000      -0.354949        -9.6586
  26   2.0000      -0.341465        -9.2917
  27   2.0000      -0.321671        -8.7531
  28   2.0000      -0.309786        -8.4297
  29   2.0000      -0.302603        -8.2342
  30   2.0000      -0.296737        -8.0746
  31   2.0000      -0.228252        -6.2110
  32   2.0000      -0.203211        -5.5296
  33   0.0000      -0.029229        -0.7954
  34   0.0000      -0.013714        -0.3732
  35   0.0000       0.057938         1.5766
  36   0.0000       0.077068         2.0971
  37   0.0000       0.099205         2.6995

MULLIKEN ATOMIC CHARGES
-----------------------
   0 C :   -0.463556
   1 C :   -0.309530
   2 C :    0.269795
   3 C :   -0.266602
   4 C :   -0.136202
   5 C :   -0.337553
   6 C :    0.418184
   7 C :   -0.398783
   8 O :   -0.415534
   9 H :    0.151058
  10 H :    0.146962
  11 H :    0.150398
  12 H :    0.147318
  13 H :    0.146887
  14 H :    0.147671
  15 H :    0.144909
  16 H :    0.136976
  17 H :    0.157283
  18 H :    0.310319
Sum of atomic charges:   -0.0000000

LOEWDIN ATOMIC CHARGES
----------------------
   0 C :   -0.405076
   1 C :   -0.286647
   2 C :   -0.081018
   3 C :   -0.189752
   4 C :   -0.148773
   5 C :   -0.183227
   6 C :    0.185639
   7 C :   -0.142374
   8 O :   -0.498193
   9 H :    0.154451
  10 H :    0.148909
  11 H :    0.154025
  12 H :    0.161467
  13 H :    0.161595
  14 H :    0.168455
  15 H :    0.167470
  16 H :    0.167670
  17 H :    0.181582
  18 H :    0.283797

  Mayer bond orders larger than 0.100000
B(  0-C ,  1-C ) :   0.9250 B(  0-C ,  9-H ) :   0.9784 B(  0-C , 10-H ) :   0.9724
B(  0-C , 11-H ) :   0.9790 B(  1-C ,  2-C ) :   0.7789 B(  1-C , 12-H ) :   0.9922
B(  1-C , 13-H ) :   0.9927 B(  2-C ,  3-C ) :   1.3727 B(  2-C ,  7-C ) :   1.3995
B(  3-C ,  4-C ) :   1.4668 B(  3-C , 14-H ) :   0.9451 B(  4-C ,  5-C ) :   1.4225
B(  4-C , 15-H ) :   0.9420 B(  5-C ,  6-C ) :   1.3518 B(  5-C , 16-H ) :   0.9365
B(  6-C ,  7-C ) :   1.4787 B(  6-C ,  8-O ) :   0.8991 B(  7-C ,  8-O ) :   0.1184
B(  7-C , 17-H ) :   0.9361 B(  8-O , 18-H ) :   0.8838

Dispersion correction           -0.006112514
FINAL SINGLE POINT ENERGY      -386.001909130653

DIPOLE MOMENT
-------------

Method             : SCF
Type of density    : Electron Density
Multiplicity       :   1
Irrep              :   0
Energy             :  -386.0024893756063307 Eh
Relativity type    :
Basis              : AO
                                X                 Y                 Z
Electronic contribution:      8.466546747      -0.023329913       1.108268346
Nuclear contribution   :     -8.264857843      -0.259249632      -1.213960517
                        -----------------------------------------
Total Dipole Moment    :      0.201688904      -0.282579545      -0.105692172
                        -----------------------------------------
Magnitude (a.u.)       :      0.362905564
Magnitude (Debye)      :      0.922432637

Rotational constants in cm-1:             0.099703             0.038996             0.030136
Rotational constants in MHz :          2989.016372          1169.069961           903.454857

                             ****ORCA TERMINATED NORMALLY****
TOTAL RUN TIME: 0 days 0 hours 0 minutes 29 seconds 748 msec
