                         Program Version 6.0.0  -   RELEASE  -
|  1> ! r2scan-3c def2/J RI DEFGRID2 scfconv6 printgap
|  2> %output
|  3>     printlevel normal
|  4> end
|  5> %cpcm
|  6>     smd true
|  7>     smdsolvent "water"
|  8> end
|  9> * xyz 0 1
| 10> C -2.9754586152 0.6395042839 -0.7520992183
| 11> C -2.2677574118 0.3600834166 0.575823941
| 12> C -0.8522139996 -0.0802389564 0.3333913157
| 13> C -0.5506848685 -1.4235607084 0.1393801335
| 14> C 0.7478413325 -1.8169778789 -0.1252264127
| 15> C 1.7645611563 -0.8815979627 -0.2028867079
| 16> C 1.4736934945 0.4636284217 -0.0127502585
| 17> C 0.1661761296 0.8556775925 0.2533607085
| 18> O 2.4295528595 1.4327931695 -0.0754548129
| 19> H -2.4541145365 1.4216355185 -1.2989988673
| 20> H -3.9992940057 0.9595052504 -0.5762857426
| 21> H -2.9902692479 -0.2566254783 -1.3680260682
| 22> H -2.8088711654 -0.4195559103 1.1147797323
| 23> H -2.2731159908 1.266265222 1.1837128541
| 24> H -1.3366384438 -2.1614901489 0.199073799
| 25> H 0.9757002967 -2.8621144666 -0.2723423758
| 26> H 2.7778306933 -1.1951861893 -0.4086027421
| 27> H -0.0349390505 1.9064013134 0.3985659155
| 28> H 3.295767842 1.0421955129 -0.2646527831
| 29> *
| 30>
| 31>                          ****END OF INPUT****

CARTESIAN COORDINATES (ANGSTROEM)
---------------------------------
  C     -2.975459    0.639504   -0.752099
  C     -2.267757    0.360083    0.575824
  C     -0.852214   -0.080239    0.333391
  C     -0.550685   -1.423561    0.139380
  C      0.747841   -1.816978   -0.125226
  C      1.764561   -0.881598   -0.202887
  C      1.473693    0.463628   -0.012750
  C      0.166176    0.855678    0.253361
  O      2.429553    1.432793   -0.075455
  H     -2.454115    1.421636   -1.298999
  H     -3.999294    0.959505   -0.576286
  H     -2.990269   -0.256625   -1.368026
  H     -2.808871   -0.419556    1.114780
  H     -2.273116    1.266265    1.183713
  H     -1.336638   -2.161490    0.199074
  H      0.975700   -2.862114   -0.272342
  H      2.777831   -1.195186   -0.408603
  H     -0.034939    1.906401    0.398566
  H      3.295768    1.042196   -0.264653

 Total Charge           Charge          ....    0
 Multiplicity           Mult            ....    1
 Number of Electrons    NEL             ....   66
 Basis Dimension        Dim             ....  226

ORBITAL ENERGIES
----------------

  NO   OCC          E(Eh)            E(eV)
   0   2.0000     -18.982131      -516.5300
   1   2.0000     -10.095373      -274.7091
   2   2.0000     -10.040582      -273.2181
   3   2.0000     -10.033139      -273.0156
   4   2.0000     -10.027506      -272.8623
   5   2.0000     -10.025587      -272.8101
   6   2.0000     -10.025377      -272.8044
   7   2.0000     -10.021639      -272.7027
   8   2.0000     -10.013598      -272.4839
   9   2.0000      -1.025200       -27.8971
  10   2.0000      -0.825626       -22.4664
  11   2.0000      -0.751875       -20.4596
  12   2.0000      -0.710764       -19.3409
  13   2.0000      -0.686848       -18.6901
  14   2.0000      -0.603195       -16.4138
  15   2.0000      -0.573624       -15.6091
  16   2.0000      -0.561552       -15.2806
  17   2.0000      -0.490965       -13.3598
  18   2.0000      -0.463115       -12.6020
  19   2.0000      -0.445044       -12.1103
  20   2.0000      -0.410910       -11.1814
  21   2.0000      -0.398326       -10.8390
  22   2.0000      -0.384809       -10.4712
  23   2.0000      -0.383116       -10.4251
  24   2.0000      -0.358119        -9.7449
  25   2.0000      -0.354158        -9.6371
  26   2.0000      -0.336385        -9.1535
  27   2.0000      -0.319159        -8.6848
  28   2.0000      -0.304635        -8.2895
  29   2.0000      -0.303119        -8.2483
  30   2.0000      -0.293096        -7.9755
  31   2.0000      -0.230824        -6.2810
  32   2.0000      -0.206163        -5.6100
  33   0.0000      -0.030988        -0.8432
  34   0.0000      -0.016213        -0.4412
  35   0.0000       0.079273         2.1571
  36   0.0000       0.086687         2.3589
  37   0.0000       0.106816         2.9066

MULLIKEN ATOMIC CHARGES
-----------------------
   0 C :   -0.511011
   1 C :   -0.280261
   2 C :    0.200848
   3 C :   -0.289846
   4 C :   -0.172125
   5 C :   -0.335474
   6 C :    0.365606
   7 C :   -0.416025
   8 O :   -0.460490
   9 H :    0.160382
  10 H :    0.161551
  11 H :    0.160925
  12 H :    0.161510
  13 H :    0.160841
  14 H :    0.177757
  15 H :    0.177808
  16 H :    0.184285
  17 H :    0.183814
  18 H :    0.369905
Sum of atomic charges:   -0.0000000

LOEWDIN ATOMIC CHARGES
----------------------
   0 C :   -0.411502
   1 C :   -0.286799
   2 C :   -0.090518
   3 C :   -0.202372
   4 C :   -0.162095
   5 C :   -0.182466
   6 C :    0.172198
   7 C :   -0.157489
   8 O :   -0.515732
   9 H :    0.155535
  10 H :    0.154313
  11 H :    0.155627
  12 H :    0.166959
  13 H :    0.166801
  14 H :    0.178576
  15 H :    0.178377
  16 H :    0.185259
  17 H :    0.189680
  18 H :    0.305648

  Mayer bond orders larger than 0.100000
B(  0-C ,  1-C ) :   0.9063 B(  0-C ,  9-H ) :   0.9785 B(  0-C , 10-H ) :   0.9678
B(  0-C , 11-H ) :   0.9786 B(  1-C ,  2-C ) :   0.7937 B(  1-C , 12-H ) :   0.9845
B(  1-C , 13-H ) :   0.9859 B(  2-C ,  3-C ) :   1.3459 B(  2-C ,  7-C ) :   1.3954
B(  3-C ,  4-C ) :   1.4157 B(  3-C , 14-H ) :   0.9557 B(  4-C ,  5-C ) :   1.3716
B(  4-C , 15-H ) :   0.9573 B(  5-C ,  6-C ) :   1.3471 B(  5-C , 16-H ) :   0.9501
B(  6-C ,  7-C ) :   1.4187 B(  6-C ,  8-O ) :   0.9082 B(  7-C ,  8-O ) :   0.1093
B(  7-C , 17-H ) :   0.9428 B(  8-O , 18-H ) :   0.8521

Dispersion correction           -0.006112514
FINAL SINGLE POINT ENERGY      -386.010303975717

DIPOLE MOMENT
-------------

Method             : SCF
Type of density    : Electron Density
Multiplicity       :   1
Irrep              :   0
Energy             :  -386.0108842206706754 Eh
Relativity type    :
Basis              : AO
                                X                 Y                 Z
Electronic contribution:      8.572247496      -0.163035732       1.072413540
Nuclear contribution   :     -8.264857843      -0.259249632      -1.213960517
                        -----------------------------------------
Total Dipole Moment    :      0.307389653      -0.422285363      -0.141546978
                        -----------------------------------------
Magnitude (a.u.)       :      0.541155129
Magnitude (Debye)      :      1.375507025

Rotational constants in cm-1:             0.099703             0.038996             0.030136
Rotational constants in MHz :          2989.016372          1169.069961           903.454857

                             ****ORCA TERMINATED NORMALLY****
TOTAL RUN TIME: 0 days 0 hours 0 minutes 35 seconds 587 msec
