                         Program Version 6.0.0  -   RELEASE  -
|  1> ! pbe def2-sv(p) def2/J RI DEFGRID1 loosescf d4 GCP(DFT/SV(P)) printgap
|  2> %output
|  3>     printlevel normal
|  4> end
|  5> * xyz 0 1
|  6> C -1.4465740234 -0.0983880751 3.0816e-06
|  7> C 0.0531514849 0.0734417777 -5.44106e-05
|  8> O 0.6027193371 1.1716307893 1.737e-06
|  9> N 0.7500455952 -1.0709473027 -1.1965e-06
| 10> H -1.7537685267 -0.6532602161 -0.8821613188
| 11> H -1.7542330577 -0.645484725 0.886898374
| 12> H -1.9213568629 0.8779787372 -0.0043038665
| 13> H 1.7562037705 -1.0343266555 0.0003306732
| 14> H 0.2872545966 -1.963095166 -0.000163164
| 15> *
| 16>
| 17>                          ****END OF INPUT****

CARTESIAN COORDINATES (ANGSTROEM)
---------------------------------
  C     -1.446574   -0.098388    0.000003
  C      0.053151    0.073442   -0.000054
  O      0.602719    1.171631    0.000002
  N      0.750046   -1.070947   -0.000001
  H     -1.753769   -0.653260   -0.882161
  H     -1.754233   -0.645485    0.886898
  H     -1.921357    0.877979   -0.004304
  H      1.756204   -1.034327    0.000331
  H      0.287255   -1.963095   -0.000163

 Total Charge           Charge          ....    0
 Multiplicity           Mult            ....    1
 Number of Electrons    NEL             ....   32
 Basis Dimension        Dim             ....   66

ORBITAL ENERGIES
----------------

  NO   OCC          E(Eh)            E(eV)
   0   2.0000     -18.703132      -508.9381
   1   2.0000     -14.009097      -381.2069
   2   2.0000      -9.977686      -271.5067
   3   2.0000      -9.884700      -268.9764
   4   2.0000      -0.920315       -25.0430
   5   2.0000      -0.817186       -22.2368
   6   2.0000      -0.662320       -18.0226
   7   2.0000      -0.532552       -14.4915
   8   2.0000      -0.492860       -13.4114
   9   2.0000      -0.408319       -11.1109
  10   2.0000      -0.400534       -10.8991
  11   2.0000      -0.354010        -9.6331
  12   2.0000      -0.333289        -9.0693
  13   2.0000      -0.320781        -8.7289
  14   2.0000      -0.224364        -6.1052
  15   2.0000      -0.189787        -5.1644
  16   0.0000       0.002737         0.0745
  17   0.0000       0.023123         0.6292
  18   0.0000       0.067675         1.8415
  19   0.0000       0.087062         2.3691
  20   0.0000       0.113354         3.0845

MULLIKEN ATOMIC CHARGES
-----------------------
   0 C :   -0.303646
   1 C :    0.016161
   2 O :   -0.221802
   3 N :   -0.310629
   4 H :    0.119875
   5 H :    0.120218
   6 H :    0.125215
   7 H :    0.231530
   8 H :    0.223076
Sum of atomic charges:    0.0000000

LOEWDIN ATOMIC CHARGES
----------------------
   0 C :   -0.368682
   1 C :    0.003579
   2 O :   -0.211596
   3 N :   -0.297180
   4 H :    0.134807
   5 H :    0.135029
   6 H :    0.140177
   7 H :    0.233527
   8 H :    0.230339

  Mayer bond orders larger than 0.100000
B(  0-C ,  1-C ) :   1.0454 B(  0-C ,  4-H ) :   0.9357 B(  0-C ,  5-H ) :   0.9356
B(  0-C ,  6-H ) :   0.9436 B(  1-C ,  2-O ) :   2.1154 B(  1-C ,  3-N ) :   1.2614
B(  3-N ,  7-H ) :   0.8687 B(  3-N ,  8-H ) :   0.8768

Dispersion correction           -0.004674863
FINAL SINGLE POINT ENERGY      -208.759392810003

DIPOLE MOMENT
-------------

Method             : SCF
Type of density    : Electron Density
Multiplicity       :   1
Irrep              :   0
Energy             :  -208.7949056653383195 Eh
Relativity type    :
Basis              : AO
                                X                 Y                 Z
Electronic contribution:      2.893695890       1.711853304      -0.000012532
Nuclear contribution   :     -3.163480504      -3.195353262       0.000563578
                        -----------------------------------------
Total Dipole Moment    :     -0.269784614      -1.483499959       0.000551046
                        -----------------------------------------
Magnitude (a.u.)       :      1.507831612
Magnitude (Debye)      :      3.832603374

Rotational constants in cm-1:             0.363502             0.314787             0.174197
Rotational constants in MHz :         10897.515878          9437.072083          5222.288726

                             ****ORCA TERMINATED NORMALLY****
TOTAL RUN TIME: 0 days 0 hours 0 minutes 4 seconds 471 msec
