                         Program Version 6.0.0  -   RELEASE  -
|  1> ! pbe def2-sv(p) def2/J RI DEFGRID1 loosescf d4 GCP(DFT/SV(P)) printgap
|  2> %output
|  3>     printlevel normal
|  4> end
|  5> * xyz 0 1
|  6> C -1.2723614823 0.0001455741 3.16513e-05
|  7> C -0.576374628 -1.21634008 -0.0029497631
|  8> C 0.8202837342 -1.2106844314 -0.0143129927
|  9> C 1.5175942228 -0.0001563207 -4.26313e-05
| 10> C 0.8205589462 1.2105227839 0.0143242175
| 11> C -0.5760958698 1.2164868493 0.0030405853
| 12> Cl -1.3989054706 2.7181598001 0.0492649445
| 13> Cl 1.6813838516 2.6856944782 0.0423958808
| 14> Cl 3.2201702405 -0.0003611199 -1.26145e-05
| 15> Cl 1.6807999053 -2.6860454755 -0.0423921295
| 16> Cl -1.3995517309 -2.7178075858 -0.0492625939
| 17> N -2.7171846456 0.0002595703 1.9952e-06
| 18> O -3.2784096369 -0.8213701402 0.6873124785
| 19> O -3.2782462842 0.8219596414 -0.687368158
| 20> *
| 21>
| 22>                          ****END OF INPUT****

CARTESIAN COORDINATES (ANGSTROEM)
---------------------------------
  C     -1.272361    0.000146    0.000032
  C     -0.576375   -1.216340   -0.002950
  C      0.820284   -1.210684   -0.014313
  C      1.517594   -0.000156   -0.000043
  C      0.820559    1.210523    0.014324
  C     -0.576096    1.216487    0.003041
  Cl    -1.398905    2.718160    0.049265
  Cl     1.681384    2.685694    0.042396
  Cl     3.220170   -0.000361   -0.000013
  Cl     1.680800   -2.686045   -0.042392
  Cl    -1.399552   -2.717808   -0.049263
  N     -2.717185    0.000260    0.000002
  O     -3.278410   -0.821370    0.687312
  O     -3.278246    0.821960   -0.687368

 Total Charge           Charge          ....    0
 Multiplicity           Mult            ....    1
 Number of Electrons    NEL             ....  144
 Basis Dimension        Dim             ....  216

ORBITAL ENERGIES
----------------

  NO   OCC          E(Eh)            E(eV)
   0   2.0000    -100.680152     -2739.6462
   1   2.0000    -100.676137     -2739.5370
   2   2.0000    -100.676123     -2739.5366
   3   2.0000    -100.674546     -2739.4937
   4   2.0000    -100.674530     -2739.4932
   5   2.0000     -18.794558      -511.4259
   6   2.0000     -18.794518      -511.4248
   7   2.0000     -14.230545      -387.2328
   8   2.0000     -10.008584      -272.3474
   9   2.0000     -10.008581      -272.3473
  10   2.0000     -10.006482      -272.2902
  11   2.0000     -10.002641      -272.1857
  12   2.0000     -10.002627      -272.1853
  13   2.0000      -9.993337      -271.9325
  14   2.0000      -9.216236      -250.7865
  15   2.0000      -9.212121      -250.6746
  16   2.0000      -9.212107      -250.6742
  17   2.0000      -9.210465      -250.6295
  18   2.0000      -9.210447      -250.6290
  19   2.0000      -7.047942      -191.7843
  20   2.0000      -7.043899      -191.6742
  21   2.0000      -7.043898      -191.6742
  22   2.0000      -7.042366      -191.6325
  23   2.0000      -7.042364      -191.6325
  24   2.0000      -7.036394      -191.4700
  25   2.0000      -7.034952      -191.4308
  26   2.0000      -7.032127      -191.3539
  27   2.0000      -7.032126      -191.3539
  28   2.0000      -7.030924      -191.3212
  29   2.0000      -7.030920      -191.3211
  30   2.0000      -7.030520      -191.3102
  31   2.0000      -7.030519      -191.3101
  32   2.0000      -7.029060      -191.2704
  33   2.0000      -7.029058      -191.2704
  34   2.0000      -1.156105       -31.4592
  35   2.0000      -0.985333       -26.8123
  36   2.0000      -0.900403       -24.5012
  37   2.0000      -0.859730       -23.3944
  38   2.0000      -0.850137       -23.1334
  39   2.0000      -0.813654       -22.1407
  40   2.0000      -0.805341       -21.9144
  41   2.0000      -0.780730       -21.2447
  42   2.0000      -0.739763       -20.1300
  43   2.0000      -0.679301       -18.4847
  44   2.0000      -0.646196       -17.5839
  45   2.0000      -0.583260       -15.8713
  46   2.0000      -0.560854       -15.2616
  47   2.0000      -0.535135       -14.5618
  48   2.0000      -0.503213       -13.6931
  49   2.0000      -0.495356       -13.4793
  50   2.0000      -0.482928       -13.1411
  51   2.0000      -0.458298       -12.4709
  52   2.0000      -0.450430       -12.2568
  53   2.0000      -0.441695       -12.0191
  54   2.0000      -0.436734       -11.8841
  55   2.0000      -0.419605       -11.4180
  56   2.0000      -0.403212       -10.9720
  57   2.0000      -0.381107       -10.3705
  58   2.0000      -0.368487       -10.0270
  59   2.0000      -0.328163        -8.9298
  60   2.0000      -0.326937        -8.8964
  61   2.0000      -0.321326        -8.7437
  62   2.0000      -0.320030        -8.7085
  63   2.0000      -0.308680        -8.3996
  64   2.0000      -0.302558        -8.2330
  65   2.0000      -0.292146        -7.9497
  66   2.0000      -0.278409        -7.5759
  67   2.0000      -0.277506        -7.5513
  68   2.0000      -0.264550        -7.1988
  69   2.0000      -0.257582        -7.0092
  70   2.0000      -0.240384        -6.5412
  71   2.0000      -0.240272        -6.5381
  72   0.0000      -0.129846        -3.5333
  73   0.0000      -0.091918        -2.5012
  74   0.0000      -0.074840        -2.0365
  75   0.0000      -0.072285        -1.9670
  76   0.0000      -0.015105        -0.4110

MULLIKEN ATOMIC CHARGES
-----------------------
   0 C :    0.067567
   1 C :    0.037453
   2 C :   -0.027993
   3 C :    0.031727
   4 C :   -0.027988
   5 C :    0.037467
   6 Cl:    0.028779
   7 Cl:    0.005274
   8 Cl:    0.013507
   9 Cl:    0.005273
  10 Cl:    0.028782
  11 N :    0.177061
  12 O :   -0.188454
  13 O :   -0.188456
Sum of atomic charges:   -0.0000000

LOEWDIN ATOMIC CHARGES
----------------------
   0 C :   -0.073065
   1 C :   -0.152530
   2 C :   -0.183866
   3 C :   -0.173003
   4 C :   -0.183870
   5 C :   -0.152529
   6 Cl:    0.209424
   7 Cl:    0.192485
   8 Cl:    0.203933
   9 Cl:    0.192480
  10 Cl:    0.209429
  11 N :    0.239189
  12 O :   -0.164040
  13 O :   -0.164038

  Mayer bond orders larger than 0.100000
B(  0-C ,  1-C ) :   1.3716 B(  0-C ,  5-C ) :   1.3716 B(  0-C , 11-N ) :   0.8653
B(  1-C ,  2-C ) :   1.3884 B(  1-C , 10-Cl) :   1.1491 B(  2-C ,  3-C ) :   1.3875
B(  2-C ,  9-Cl) :   1.1328 B(  3-C ,  4-C ) :   1.3875 B(  3-C ,  8-Cl) :   1.1462
B(  4-C ,  5-C ) :   1.3884 B(  4-C ,  7-Cl) :   1.1328 B(  5-C ,  6-Cl) :   1.1491
B( 11-N , 12-O ) :   1.5284 B( 11-N , 13-O ) :   1.5284 B( 12-O , 13-O ) :   0.3135

Dispersion correction           -0.030521136
FINAL SINGLE POINT ENERGY     -2732.257283514385

DIPOLE MOMENT
-------------

Method             : SCF
Type of density    : Electron Density
Multiplicity       :   1
Irrep              :   0
Energy             : -2732.2727337579281084 Eh
Relativity type    :
Basis              : AO
                                X                 Y                 Z
Electronic contribution:      6.308003526      -0.000561714       0.000023240
Nuclear contribution   :     -5.190653888       0.000493208       0.000007930
                        -----------------------------------------
Total Dipole Moment    :      1.117349638      -0.000068506       0.000031170
                        -----------------------------------------
Magnitude (a.u.)       :      1.117349640
Magnitude (Debye)      :      2.840077081

Rotational constants in cm-1:             0.014747             0.013586             0.007164
Rotational constants in MHz :           442.114307           407.293666           214.773898

                             ****ORCA TERMINATED NORMALLY****
TOTAL RUN TIME: 0 days 0 hours 0 minutes 10 seconds 699 msec
