                         Program Version 6.0.0  -   RELEASE  -
|  1> ! pbe def2-sv(p) def2/J RI DEFGRID1 loosescf d4 GCP(DFT/SV(P)) printgap
|  2> %output
|  3>     printlevel normal
|  4> end
|  5> * xyz 0 1
|  6> C -1.6855796078 0.6137864105 -0.6282477679
|  7> C -1.1978363407 -0.0785029375 0.6384303345
|  8> C 0.0387166337 -0.9461338786 0.3733168114
|  9> C 1.1795982615 -0.1462814484 -0.0240522504
| 10> C 2.1105646806 0.5343772582 -0.3448842082
| 11> H -1.9672552116 -0.1198586942 -1.3808307282
| 12> H -2.5507186724 1.2365180832 -0.4138338013
| 13> H -0.8987924384 1.2424072258 -1.0398733009
| 14> H -0.9540153865 0.6720439815 1.3935418784
| 15> H -1.9915668323 -0.7136081592 1.0372275684
| 16> H -0.1800923664 -1.6663183824 -0.4198191509
| 17> H 0.3016877936 -1.5008046541 1.278041651
| 18> H 2.9325581825 1.1207669347 -0.6279875101
| 19> *
| 20>
| 21>                          ****END OF INPUT****

CARTESIAN COORDINATES (ANGSTROEM)
---------------------------------
  C     -1.685580    0.613786   -0.628248
  C     -1.197836   -0.078503    0.638430
  C      0.038717   -0.946134    0.373317
  C      1.179598   -0.146281   -0.024052
  C      2.110565    0.534377   -0.344884
  H     -1.967255   -0.119859   -1.380831
  H     -2.550719    1.236518   -0.413834
  H     -0.898792    1.242407   -1.039873
  H     -0.954015    0.672044    1.393542
  H     -1.991567   -0.713608    1.037228
  H     -0.180092   -1.666318   -0.419819
  H      0.301688   -1.500805    1.278042
  H      2.932558    1.120767   -0.627988

 Total Charge           Charge          ....    0
 Multiplicity           Mult            ....    1
 Number of Electrons    NEL             ....   38
 Basis Dimension        Dim             ....   86

ORBITAL ENERGIES
----------------

  NO   OCC          E(Eh)            E(eV)
   0   2.0000      -9.909130      -269.6411
   1   2.0000      -9.893998      -269.2294
   2   2.0000      -9.885889      -269.0087
   3   2.0000      -9.877216      -268.7727
   4   2.0000      -9.874777      -268.7063
   5   2.0000      -0.732972       -19.9452
   6   2.0000      -0.662118       -18.0171
   7   2.0000      -0.616896       -16.7866
   8   2.0000      -0.536578       -14.6010
   9   2.0000      -0.471397       -12.8274
  10   2.0000      -0.429277       -11.6812
  11   2.0000      -0.412808       -11.2331
  12   2.0000      -0.381017       -10.3680
  13   2.0000      -0.362883        -9.8745
  14   2.0000      -0.314160        -8.5487
  15   2.0000      -0.310781        -8.4568
  16   2.0000      -0.299051        -8.1376
  17   2.0000      -0.233316        -6.3489
  18   2.0000      -0.232186        -6.3181
  19   0.0000       0.014409         0.3921
  20   0.0000       0.021859         0.5948
  21   0.0000       0.051376         1.3980
  22   0.0000       0.081617         2.2209
  23   0.0000       0.084501         2.2994

MULLIKEN ATOMIC CHARGES
-----------------------
   0 C :   -0.287194
   1 C :   -0.192599
   2 C :   -0.108570
   3 C :    0.402720
   4 C :   -0.605312
   5 H :    0.096135
   6 H :    0.106283
   7 H :    0.120640
   8 H :    0.101689
   9 H :    0.091200
  10 H :    0.109424
  11 H :    0.113510
  12 H :    0.052075
Sum of atomic charges:    0.0000000

LOEWDIN ATOMIC CHARGES
----------------------
   0 C :   -0.343005
   1 C :   -0.222907
   2 C :   -0.226569
   3 C :   -0.028783
   4 C :   -0.206795
   5 H :    0.116983
   6 H :    0.120532
   7 H :    0.125639
   8 H :    0.122214
   9 H :    0.117304
  10 H :    0.140075
  11 H :    0.142136
  12 H :    0.143175

  Mayer bond orders larger than 0.100000
B(  0-C ,  1-C ) :   1.1504 B(  0-C ,  5-H ) :   0.9540 B(  0-C ,  6-H ) :   0.9527
B(  0-C ,  7-H ) :   0.9499 B(  1-C ,  2-C ) :   1.0959 B(  1-C ,  8-H ) :   0.9291
B(  1-C ,  9-H ) :   0.9244 B(  2-C ,  3-C ) :   1.1199 B(  2-C , 10-H ) :   0.8874
B(  2-C , 11-H ) :   0.8854 B(  3-C ,  4-C ) :   2.2223 B(  3-C , 12-H ) :  -0.1283
B(  4-C , 12-H ) :   1.0903

Dispersion correction           -0.008540570
FINAL SINGLE POINT ENERGY      -194.797727587723

DIPOLE MOMENT
-------------

Method             : SCF
Type of density    : Electron Density
Multiplicity       :   1
Irrep              :   0
Energy             :  -194.8372200076089769 Eh
Relativity type    :
Basis              : AO
                                X                 Y                 Z
Electronic contribution:      4.732495190      -0.366191397       0.246380677
Nuclear contribution   :     -4.980001607       0.254381989      -0.162804228
                        -----------------------------------------
Total Dipole Moment    :     -0.247506418      -0.111809408       0.083576449
                        -----------------------------------------
Magnitude (a.u.)       :      0.284158043
Magnitude (Debye)      :      0.722272345

Rotational constants in cm-1:             0.334407             0.107794             0.089838
Rotational constants in MHz :         10025.263985          3231.584021          2693.264361

                             ****ORCA TERMINATED NORMALLY****
TOTAL RUN TIME: 0 days 0 hours 0 minutes 4 seconds 591 msec
