                         Program Version 6.0.0  -   RELEASE  -
|  1> ! wb97x-v def2-tzvp def2/J RIJCOSX DEFGRID2 scfconv7 GCP(DFT/TZ) printgap
|  2> %output
|  3>     printlevel normal
|  4> end
|  5> * xyz 0 1
|  6> C 2.4093298773195726 1.8387134692114103e-05 0.049210739959818214
|  7> N 1.0123337985305967 -9.330700535099045e-06 -0.390006507707615
|  8> C 0.3337600642936845 -1.1882134441808876 0.15109960658863852
|  9> C -1.1382415414940146 -1.175544362667216 -0.20894103848960702
| 10> O -1.7887108875597344 1.541993301433578e-05 0.30069798778916285
| 11> C -1.1382513874029374 1.175535662718875 -0.2090471928865895
| 12> C 0.3337523936964298 1.1882429211297107 0.15098349660021526
| 13> H 2.503495715541499 0.00015309111245414496 1.1500401276612713
| 14> H 2.921180720865306 0.8872417507494615 -0.33703659389857626
| 15> H 2.9211384249021646 -0.887322760568804 -0.3368163701327122
| 16> H 0.7954862816144926 -2.0910977714127417 -0.2649242879678029
| 17> H 0.4363512975575951 -1.2353258081546252 1.2525804288788005
| 18> H -1.2699745057088418 -1.2227205059012687 -1.3010794983943714
| 19> H -1.645119806696612 -2.032493089865484 0.2433208464638498
| 20> H -1.2699928972819496 1.2226174603438111 -1.3011886005457955
| 21> H -1.645131163797549 2.0325200975138897 0.2431457567015914
| 22> H 0.7954713872274115 2.0910909791678782 -0.26512842036446777
| 23> H 0.4363510003131836 1.235463920594774 1.252460457651713
| 24> *
| 25>
| 26>                          ****END OF INPUT****

CARTESIAN COORDINATES (ANGSTROEM)
---------------------------------
  C      2.409330    0.000018    0.049211
  N      1.012334   -0.000009   -0.390007
  C      0.333760   -1.188213    0.151100
  C     -1.138242   -1.175544   -0.208941
  O     -1.788711    0.000015    0.300698
  C     -1.138251    1.175536   -0.209047
  C      0.333752    1.188243    0.150983
  H      2.503496    0.000153    1.150040
  H      2.921181    0.887242   -0.337037
  H      2.921138   -0.887323   -0.336816
  H      0.795486   -2.091098   -0.264924
  H      0.436351   -1.235326    1.252580
  H     -1.269975   -1.222721   -1.301079
  H     -1.645120   -2.032493    0.243321
  H     -1.269993    1.222617   -1.301189
  H     -1.645131    2.032520    0.243146
  H      0.795471    2.091091   -0.265128
  H      0.436351    1.235464    1.252460

 Total Charge           Charge          ....    0
 Multiplicity           Mult            ....    1
 Number of Electrons    NEL             ....   56
 Basis Dimension        Dim             ....  283

ORBITAL ENERGIES
----------------

  NO   OCC          E(Eh)            E(eV)
   0   2.0000     -21.670451      -589.6829
   1   2.0000     -16.525487      -449.6814
   2   2.0000     -12.089390      -328.9690
   3   2.0000     -12.089213      -328.9642
   4   2.0000     -12.069469      -328.4270
   5   2.0000     -12.069279      -328.4218
   6   2.0000     -12.064851      -328.3013
   7   2.0000      -1.674196       -45.5572
   8   2.0000      -1.492227       -40.6056
   9   2.0000      -1.293933       -35.2097
  10   2.0000      -1.246238       -33.9119
  11   2.0000      -1.172340       -31.9010
  12   2.0000      -1.149291       -31.2738
  13   2.0000      -1.048861       -28.5410
  14   2.0000      -0.986526       -26.8447
  15   2.0000      -0.981273       -26.7018
  16   2.0000      -0.945237       -25.7212
  17   2.0000      -0.926225       -25.2039
  18   2.0000      -0.924294       -25.1513
  19   2.0000      -0.909324       -24.7440
  20   2.0000      -0.846357       -23.0305
  21   2.0000      -0.829144       -22.5622
  22   2.0000      -0.826464       -22.4892
  23   2.0000      -0.805540       -21.9199
  24   2.0000      -0.799407       -21.7530
  25   2.0000      -0.794438       -21.6177
  26   2.0000      -0.778247       -21.1772
  27   2.0000      -0.694875       -18.9085
  28   0.0000      -0.173121        -4.7109
  29   0.0000      -0.111885        -3.0445
  30   0.0000      -0.086360        -2.3500
  31   0.0000      -0.055694        -1.5155
  32   0.0000      -0.053522        -1.4564

MULLIKEN ATOMIC CHARGES
-----------------------
   0 C :   -0.277036
   1 N :   -0.151156
   2 C :   -0.135393
   3 C :   -0.033632
   4 O :   -0.305122
   5 C :   -0.033613
   6 C :   -0.135438
   7 H :    0.096671
   8 H :    0.117048
   9 H :    0.117050
  10 H :    0.102324
  11 H :    0.080321
  12 H :    0.082084
  13 H :    0.105577
  14 H :    0.082082
  15 H :    0.105579
  16 H :    0.102326
  17 H :    0.080328
Sum of atomic charges:    0.0000000

LOEWDIN ATOMIC CHARGES
----------------------
   0 C :   -0.319257
   1 N :    0.055902
   2 C :   -0.289847
   3 C :   -0.305723
   4 O :    0.128699
   5 C :   -0.305723
   6 C :   -0.289847
   7 H :    0.099768
   8 H :    0.112719
   9 H :    0.112720
  10 H :    0.132590
  11 H :    0.121271
  12 H :    0.119572
  13 H :    0.126861
  14 H :    0.119572
  15 H :    0.126861
  16 H :    0.132591
  17 H :    0.121270

  Mayer bond orders larger than 0.100000
B(  0-C ,  1-N ) :   0.9882 B(  0-C ,  7-H ) :   0.9782 B(  0-C ,  8-H ) :   0.9796
B(  0-C ,  9-H ) :   0.9796 B(  1-N ,  2-C ) :   0.9842 B(  1-N ,  6-C ) :   0.9842
B(  2-C ,  3-C ) :   1.0103 B(  2-C , 10-H ) :   0.9575 B(  2-C , 11-H ) :   0.9628
B(  3-C ,  4-O ) :   1.0169 B(  3-C , 12-H ) :   0.9798 B(  3-C , 13-H ) :   0.9659
B(  4-O ,  5-C ) :   1.0169 B(  5-C ,  6-C ) :   1.0103 B(  5-C , 14-H ) :   0.9798
B(  5-C , 15-H ) :   0.9659 B(  6-C , 16-H ) :   0.9575 B(  6-C , 17-H ) :   0.9628

FINAL SINGLE POINT ENERGY      -327.123976203820

DIPOLE MOMENT
-------------

Method             : SCF
Type of density    : Electron Density
Multiplicity       :   1
Irrep              :   0
Energy             :  -327.1370859639197874 Eh
Relativity type    :
Basis              : AO
                                X                 Y                 Z
Electronic contribution:     -4.106794937      -0.000046185      -0.438706350
Nuclear contribution   :      4.630682876       0.000046595       0.430919545
                        -----------------------------------------
Total Dipole Moment    :      0.523887938       0.000000410      -0.007786805
                        -----------------------------------------
Magnitude (a.u.)       :      0.523945805
Magnitude (Debye)      :      1.331764399

Rotational constants in cm-1:             0.159775             0.077849             0.057164
Rotational constants in MHz :          4789.932386          2333.867204          1713.732007

                             ****ORCA TERMINATED NORMALLY****
TOTAL RUN TIME: 0 days 0 hours 2 minutes 23 seconds 951 msec
