                         Program Version 6.0.0  -   RELEASE  -
|  1> ! wb97x-v def2-tzvp def2/J RIJCOSX DEFGRID2 scfconv7 GCP(DFT/TZ) printgap
|  2> %output
|  3>     printlevel normal
|  4> end
|  5> %cpcm
|  6>     smd true
|  7>     smdsolvent "water"
|  8> end
|  9> * xyz 0 1
| 10> C 2.4093298773195726 1.8387134692114103e-05 0.049210739959818214
| 11> N 1.0123337985305967 -9.330700535099045e-06 -0.390006507707615
| 12> C 0.3337600642936845 -1.1882134441808876 0.15109960658863852
| 13> C -1.1382415414940146 -1.175544362667216 -0.20894103848960702
| 14> O -1.7887108875597344 1.541993301433578e-05 0.30069798778916285
| 15> C -1.1382513874029374 1.175535662718875 -0.2090471928865895
| 16> C 0.3337523936964298 1.1882429211297107 0.15098349660021526
| 17> H 2.503495715541499 0.00015309111245414496 1.1500401276612713
| 18> H 2.921180720865306 0.8872417507494615 -0.33703659389857626
| 19> H 2.9211384249021646 -0.887322760568804 -0.3368163701327122
| 20> H 0.7954862816144926 -2.0910977714127417 -0.2649242879678029
| 21> H 0.4363512975575951 -1.2353258081546252 1.2525804288788005
| 22> H -1.2699745057088418 -1.2227205059012687 -1.3010794983943714
| 23> H -1.645119806696612 -2.032493089865484 0.2433208464638498
| 24> H -1.2699928972819496 1.2226174603438111 -1.3011886005457955
| 25> H -1.645131163797549 2.0325200975138897 0.2431457567015914
| 26> H 0.7954713872274115 2.0910909791678782 -0.26512842036446777
| 27> H 0.4363510003131836 1.235463920594774 1.252460457651713
| 28> *
| 29>
| 30>                          ****END OF INPUT****

CARTESIAN COORDINATES (ANGSTROEM)
---------------------------------
  C      2.409330    0.000018    0.049211
  N      1.012334   -0.000009   -0.390007
  C      0.333760   -1.188213    0.151100
  C     -1.138242   -1.175544   -0.208941
  O     -1.788711    0.000015    0.300698
  C     -1.138251    1.175536   -0.209047
  C      0.333752    1.188243    0.150983
  H      2.503496    0.000153    1.150040
  H      2.921181    0.887242   -0.337037
  H      2.921138   -0.887323   -0.336816
  H      0.795486   -2.091098   -0.264924
  H      0.436351   -1.235326    1.252580
  H     -1.269975   -1.222721   -1.301079
  H     -1.645120   -2.032493    0.243321
  H     -1.269993    1.222617   -1.301189
  H     -1.645131    2.032520    0.243146
  H      0.795471    2.091091   -0.265128
  H      0.436351    1.235464    1.252460

 Total Charge           Charge          ....    0
 Multiplicity           Mult            ....    1
 Number of Electrons    NEL             ....   56
 Basis Dimension        Dim             ....  283

ORBITAL ENERGIES
----------------

  NO   OCC          E(Eh)            E(eV)
   0   2.0000     -21.677250      -589.8679
   1   2.0000     -16.520067      -449.5339
   2   2.0000     -12.084521      -328.8365
   3   2.0000     -12.084353      -328.8320
   4   2.0000     -12.060151      -328.1734
   5   2.0000     -12.059959      -328.1682
   6   2.0000     -12.052740      -327.9717
   7   2.0000      -1.681034       -45.7433
   8   2.0000      -1.485608       -40.4254
   9   2.0000      -1.289711       -35.0948
  10   2.0000      -1.239383       -33.7253
  11   2.0000      -1.168973       -31.8094
  12   2.0000      -1.141766       -31.0690
  13   2.0000      -1.044790       -28.4302
  14   2.0000      -0.984503       -26.7897
  15   2.0000      -0.982462       -26.7342
  16   2.0000      -0.947498       -25.7827
  17   2.0000      -0.921793       -25.0833
  18   2.0000      -0.917488       -24.9661
  19   2.0000      -0.901276       -24.5250
  20   2.0000      -0.839275       -22.8378
  21   2.0000      -0.821238       -22.3470
  22   2.0000      -0.816922       -22.2296
  23   2.0000      -0.801950       -21.8222
  24   2.0000      -0.790177       -21.5018
  25   2.0000      -0.786537       -21.4028
  26   2.0000      -0.774903       -21.0862
  27   2.0000      -0.689270       -18.7560
  28   0.0000      -0.170095        -4.6285
  29   0.0000      -0.109916        -2.9910
  30   0.0000      -0.078096        -2.1251
  31   0.0000      -0.047061        -1.2806
  32   0.0000      -0.046541        -1.2664

MULLIKEN ATOMIC CHARGES
-----------------------
   0 C :   -0.318572
   1 N :   -0.198506
   2 C :   -0.157345
   3 C :   -0.048633
   4 O :   -0.388381
   5 C :   -0.048614
   6 C :   -0.157391
   7 H :    0.113307
   8 H :    0.137875
   9 H :    0.137881
  10 H :    0.131514
  11 H :    0.096591
  12 H :    0.102904
  13 H :    0.133175
  14 H :    0.102903
  15 H :    0.133178
  16 H :    0.131516
  17 H :    0.096599
Sum of atomic charges:    0.0000000

LOEWDIN ATOMIC CHARGES
----------------------
   0 C :   -0.322730
   1 N :    0.039167
   2 C :   -0.288702
   3 C :   -0.307123
   4 O :    0.090521
   5 C :   -0.307122
   6 C :   -0.288703
   7 H :    0.104955
   8 H :    0.116648
   9 H :    0.116649
  10 H :    0.140324
  11 H :    0.125672
  12 H :    0.124206
  13 H :    0.133018
  14 H :    0.124206
  15 H :    0.133018
  16 H :    0.140324
  17 H :    0.125672

  Mayer bond orders larger than 0.100000
B(  0-C ,  1-N ) :   0.9837 B(  0-C ,  7-H ) :   0.9797 B(  0-C ,  8-H ) :   0.9743
B(  0-C ,  9-H ) :   0.9743 B(  1-N ,  2-C ) :   0.9747 B(  1-N ,  6-C ) :   0.9747
B(  2-C ,  3-C ) :   1.0075 B(  2-C , 10-H ) :   0.9568 B(  2-C , 11-H ) :   0.9656
B(  3-C ,  4-O ) :   0.9785 B(  3-C , 12-H ) :   0.9789 B(  3-C , 13-H ) :   0.9648
B(  4-O ,  5-C ) :   0.9785 B(  5-C ,  6-C ) :   1.0075 B(  5-C , 14-H ) :   0.9789
B(  5-C , 15-H ) :   0.9648 B(  6-C , 16-H ) :   0.9568 B(  6-C , 17-H ) :   0.9656

FINAL SINGLE POINT ENERGY      -327.135872686859

DIPOLE MOMENT
-------------

Method             : SCF
Type of density    : Electron Density
Multiplicity       :   1
Irrep              :   0
Energy             :  -327.1489824469592236 Eh
Relativity type    :
Basis              : AO
                                X                 Y                 Z
Electronic contribution:     -3.878991163      -0.000045201      -0.405824758
Nuclear contribution   :      4.630682876       0.000046595       0.430919545
                        -----------------------------------------
Total Dipole Moment    :      0.751691713       0.000001394       0.025094787
                        -----------------------------------------
Magnitude (a.u.)       :      0.752110483
Magnitude (Debye)      :      1.911712923

Rotational constants in cm-1:             0.159775             0.077849             0.057164
Rotational constants in MHz :          4789.932386          2333.867204          1713.732007

                             ****ORCA TERMINATED NORMALLY****
TOTAL RUN TIME: 0 days 0 hours 2 minutes 32 seconds 229 msec
