                         Program Version 6.0.0  -   RELEASE  -
|  1> ! pbe def2-sv(p) def2/J RI DEFGRID1 loosescf d4 GCP(DFT/SV(P)) printgap
|  2> %output
|  3>     printlevel normal
|  4> end
|  5> * xyz 0 1
|  6> C -2.2574617116 -0.9802652746 -0.3378759448
|  7> C -1.1295300479 -0.2480809202 0.4031191383
|  8> H -1.5418422209 0.1648459471 1.3341775642
|  9> C -0.5528173617 0.8867049675 -0.4490696952
| 10> H -0.3806083289 0.5379331362 -1.4729360847
| 11> C 0.7910029543 1.3313723238 0.1505830296
| 12> H 0.634256007 1.5966505406 1.2119538371
| 13> C 1.7979899324 0.1719171077 0.0746713227
| 14> H 2.3477931292 0.2597927814 -0.867340272
| 15> C 1.0646418555 -1.1913996235 0.0669393412
| 16> H 1.6998720846 -1.9151557311 0.5957014221
| 17> O -0.1204635826 -1.1693880525 0.8271512261
| 18> O 0.8428861641 -1.5725894576 -1.2537304594
| 19> O 2.7668290163 0.2204671151 1.0856037947
| 20> O 1.3064126462 2.4455231587 -0.531640155
| 21> O -1.4364910099 1.9699522661 -0.5642149698
| 22> O -2.9862508373 -1.831864051 0.5097079555
| 23> H -1.8321034448 -1.5352441557 -1.1829998031
| 24> H -2.9662676808 -0.2431000807 -0.7202551116
| 25> H 0.7037498579 -2.529759875 -1.3168585573
| 26> H 2.3404594824 0.2231357235 1.955839508
| 27> H 0.5589318794 2.9699180604 -0.8655889969
| 28> H -1.7051974797 2.275448376 0.3160562114
| 29> H -2.3685126105 -2.4357119735 0.9473699489
| 30> *
| 31>
| 32>                          ****END OF INPUT****

CARTESIAN COORDINATES (ANGSTROEM)
---------------------------------
  C     -2.257462   -0.980265   -0.337876
  C     -1.129530   -0.248081    0.403119
  H     -1.541842    0.164846    1.334178
  C     -0.552817    0.886705   -0.449070
  H     -0.380608    0.537933   -1.472936
  C      0.791003    1.331372    0.150583
  H      0.634256    1.596651    1.211954
  C      1.797990    0.171917    0.074671
  H      2.347793    0.259793   -0.867340
  C      1.064642   -1.191400    0.066939
  H      1.699872   -1.915156    0.595701
  O     -0.120464   -1.169388    0.827151
  O      0.842886   -1.572589   -1.253730
  O      2.766829    0.220467    1.085604
  O      1.306413    2.445523   -0.531640
  O     -1.436491    1.969952   -0.564215
  O     -2.986251   -1.831864    0.509708
  H     -1.832103   -1.535244   -1.183000
  H     -2.966268   -0.243100   -0.720255
  H      0.703750   -2.529760   -1.316859
  H      2.340459    0.223136    1.955840
  H      0.558932    2.969918   -0.865589
  H     -1.705197    2.275448    0.316056
  H     -2.368513   -2.435712    0.947370

 Total Charge           Charge          ....    0
 Multiplicity           Mult            ....    1
 Number of Electrons    NEL             ....   96
 Basis Dimension        Dim             ....  192

ORBITAL ENERGIES
----------------

  NO   OCC          E(Eh)            E(eV)
   0   2.0000     -18.779949      -511.0284
   1   2.0000     -18.777033      -510.9490
   2   2.0000     -18.776220      -510.9269
   3   2.0000     -18.752276      -510.2754
   4   2.0000     -18.746243      -510.1112
   5   2.0000     -18.745598      -510.0937
   6   2.0000      -9.992280      -271.9038
   7   2.0000      -9.951640      -270.7979
   8   2.0000      -9.951390      -270.7911
   9   2.0000      -9.945774      -270.6383
  10   2.0000      -9.942171      -270.5402
  11   2.0000      -9.931072      -270.2382
  12   2.0000      -0.990529       -26.9537
  13   2.0000      -0.958875       -26.0923
  14   2.0000      -0.934347       -25.4249
  15   2.0000      -0.929612       -25.2960
  16   2.0000      -0.916935       -24.9511
  17   2.0000      -0.915815       -24.9206
  18   2.0000      -0.711124       -19.3507
  19   2.0000      -0.694476       -18.8976
  20   2.0000      -0.621930       -16.9236
  21   2.0000      -0.598278       -16.2800
  22   2.0000      -0.568823       -15.4784
  23   2.0000      -0.538604       -14.6562
  24   2.0000      -0.513746       -13.9797
  25   2.0000      -0.491330       -13.3698
  26   2.0000      -0.481405       -13.0997
  27   2.0000      -0.456118       -12.4116
  28   2.0000      -0.453036       -12.3277
  29   2.0000      -0.439258       -11.9528
  30   2.0000      -0.410640       -11.1741
  31   2.0000      -0.401195       -10.9171
  32   2.0000      -0.387094       -10.5334
  33   2.0000      -0.384875       -10.4730
  34   2.0000      -0.363799        -9.8995
  35   2.0000      -0.360752        -9.8166
  36   2.0000      -0.345456        -9.4003
  37   2.0000      -0.310166        -8.4400
  38   2.0000      -0.302821        -8.2402
  39   2.0000      -0.295185        -8.0324
  40   2.0000      -0.285383        -7.7657
  41   2.0000      -0.280883        -7.6432
  42   2.0000      -0.268837        -7.3154
  43   2.0000      -0.248035        -6.7494
  44   2.0000      -0.240926        -6.5559
  45   2.0000      -0.226678        -6.1682
  46   2.0000      -0.215443        -5.8625
  47   2.0000      -0.204958        -5.5772
  48   0.0000       0.005571         0.1516
  49   0.0000       0.010830         0.2947
  50   0.0000       0.023739         0.6460
  51   0.0000       0.046426         1.2633
  52   0.0000       0.052381         1.4254

MULLIKEN ATOMIC CHARGES
-----------------------
   0 C :    0.092603
   1 C :    0.023775
   2 H :    0.051976
   3 C :   -0.007884
   4 H :    0.091159
   5 C :    0.064452
   6 H :    0.017391
   7 C :    0.123452
   8 H :    0.087398
   9 C :    0.117060
  10 H :    0.069393
  11 O :   -0.331734
  12 O :   -0.387029
  13 O :   -0.414174
  14 O :   -0.406824
  15 O :   -0.408489
  16 O :   -0.434173
  17 H :    0.063272
  18 H :    0.086135
  19 H :    0.309549
  20 H :    0.296169
  21 H :    0.298510
  22 H :    0.302954
  23 H :    0.295059
Sum of atomic charges:    0.0000000

LOEWDIN ATOMIC CHARGES
----------------------
   0 C :   -0.133121
   1 C :   -0.076786
   2 H :    0.107418
   3 C :   -0.091380
   4 H :    0.127423
   5 C :   -0.073437
   6 H :    0.090267
   7 C :   -0.071530
   8 H :    0.132453
   9 C :   -0.015982
  10 H :    0.101667
  11 O :   -0.160422
  12 O :   -0.304771
  13 O :   -0.305875
  14 O :   -0.318799
  15 O :   -0.299891
  16 O :   -0.338786
  17 H :    0.097261
  18 H :    0.117732
  19 H :    0.290576
  20 H :    0.281304
  21 H :    0.277896
  22 H :    0.286966
  23 H :    0.279817

  Mayer bond orders larger than 0.100000
B(  0-C ,  1-C ) :   1.0628 B(  0-C , 16-O ) :   1.0729 B(  0-C , 17-H ) :   0.9023
B(  0-C , 18-H ) :   0.9106 B(  1-C ,  2-H ) :   0.8748 B(  1-C ,  3-C ) :   0.9627
B(  1-C , 11-O ) :   0.9611 B(  3-C ,  4-H ) :   0.8629 B(  3-C ,  5-C ) :   1.0449
B(  3-C , 15-O ) :   1.0083 B(  5-C ,  6-H ) :   0.8461 B(  5-C ,  7-C ) :   1.0013
B(  5-C , 14-O ) :   1.1184 B(  7-C ,  8-H ) :   0.8608 B(  7-C ,  9-C ) :   0.9896
B(  7-C , 13-O ) :   1.0464 B(  9-C , 10-H ) :   0.8994 B(  9-C , 11-O ) :   1.0572
B(  9-C , 12-O ) :   1.1033 B( 12-O , 19-H ) :   0.8345 B( 13-O , 20-H ) :   0.8486
B( 14-O , 21-H ) :   0.8250 B( 15-O , 22-H ) :   0.8427 B( 16-O , 23-H ) :   0.8466

Dispersion correction           -0.024399467
FINAL SINGLE POINT ENERGY      -685.691295304322

DIPOLE MOMENT
-------------

Method             : SCF
Type of density    : Electron Density
Multiplicity       :   1
Irrep              :   0
Energy             :  -685.8215617055230950 Eh
Relativity type    :
Basis              : AO
                                X                 Y                 Z
Electronic contribution:      2.008349649       0.124970717       0.596197187
Nuclear contribution   :     -2.348784477      -0.591297313      -0.059789149
                        -----------------------------------------
Total Dipole Moment    :     -0.340434828      -0.466326596       0.536408038
                        -----------------------------------------
Magnitude (a.u.)       :      0.788092602
Magnitude (Debye)      :      2.003172200

Rotational constants in cm-1:             0.042262             0.025479             0.018895
Rotational constants in MHz :          1266.975121           763.851972           566.460054

                             ****ORCA TERMINATED NORMALLY****
TOTAL RUN TIME: 0 days 0 hours 0 minutes 12 seconds 321 msec
