                         Program Version 6.0.0  -   RELEASE  -
|  1> ! wb97x-v def2-tzvp def2/J RIJCOSX DEFGRID2 scfconv7 GCP(DFT/TZ) printgap
|  2> %output
|  3>     printlevel normal
|  4> end
|  5> * xyz 0 1
|  6> C -2.5742050578663864 -0.8509069797447294 0.3197813593648366
|  7> C -1.146113060569085 -0.41625026237042095 0.588980943993526
|  8> H -1.0027820745211573 -0.36762190763912544 1.682808513280877
|  9> C -0.8013296396225081 0.9499368725929596 -0.01913395600773627
| 10> H -1.022087614000653 0.9351697467177911 -1.092179824633556
| 11> C 0.6771422305422249 1.2557523908291743 0.1816527683338316
| 12> H 0.8645168947383631 1.394096272141744 1.260448161001061
| 13> C 1.5404032710264033 0.10248918885535732 -0.3119504873880972
| 14> H 1.426440997032369 -0.0021241749236850355 -1.401602430660547
| 15> C 1.0907216053391424 -1.1986938364410422 0.3416316616214116
| 16> H 1.2137542628318478 -1.1520145202095384 1.4364158810770467
| 17> O -0.28847752391910597 -1.428458582026145 0.030880085850854302
| 18> O 1.8378395136983543 -2.251304157259867 -0.20850698883822102
| 19> O 2.8939213722090025 0.41356868263208596 0.02975749472051469
| 20> O 0.9781987659392617 2.463550211251642 -0.5250106305449872
| 21> O -1.6252454863375012 1.9763688094774277 0.5392536639334732
| 22> O -2.891991609475153 -0.9034854950435736 -1.0758956614429749
| 23> H -3.259411338567397 -0.13002585476112868 0.7724865511381147
| 24> H -2.739460127107889 -1.8286231927584504 0.792304835556957
| 25> H 1.787320160589347 -3.005942697458646 0.3938674121216938
| 26> H 3.463937824037466 -0.2166297940957348 -0.43069475337458
| 27> H 1.9109790965417117 2.662624931315095 -0.36782373795775825
| 28> H -1.4385525404180144 2.018136845344322 1.4887439016540351
| 29> H -2.3292004076186257 -1.579744291316647 -1.4755091130442408
| 30> *
| 31>
| 32>                          ****END OF INPUT****

CARTESIAN COORDINATES (ANGSTROEM)
---------------------------------
  C     -2.574205   -0.850907    0.319781
  C     -1.146113   -0.416250    0.588981
  H     -1.002782   -0.367622    1.682809
  C     -0.801330    0.949937   -0.019134
  H     -1.022088    0.935170   -1.092180
  C      0.677142    1.255752    0.181653
  H      0.864517    1.394096    1.260448
  C      1.540403    0.102489   -0.311950
  H      1.426441   -0.002124   -1.401602
  C      1.090722   -1.198694    0.341632
  H      1.213754   -1.152015    1.436416
  O     -0.288478   -1.428459    0.030880
  O      1.837840   -2.251304   -0.208507
  O      2.893921    0.413569    0.029757
  O      0.978199    2.463550   -0.525011
  O     -1.625245    1.976369    0.539254
  O     -2.891992   -0.903485   -1.075896
  H     -3.259411   -0.130026    0.772487
  H     -2.739460   -1.828623    0.792305
  H      1.787320   -3.005943    0.393867
  H      3.463938   -0.216630   -0.430695
  H      1.910979    2.662625   -0.367824
  H     -1.438553    2.018137    1.488744
  H     -2.329200   -1.579744   -1.475509

 Total Charge           Charge          ....    0
 Multiplicity           Mult            ....    1
 Number of Electrons    NEL             ....   96
 Basis Dimension        Dim             ....  444

ORBITAL ENERGIES
----------------

  NO   OCC          E(Eh)            E(eV)
   0   2.0000     -21.705932      -590.6484
   1   2.0000     -21.698404      -590.4436
   2   2.0000     -21.692176      -590.2741
   3   2.0000     -21.679433      -589.9274
   4   2.0000     -21.674370      -589.7896
   5   2.0000     -21.672689      -589.7438
   6   2.0000     -12.166617      -331.0705
   7   2.0000     -12.115178      -329.6707
   8   2.0000     -12.112537      -329.5989
   9   2.0000     -12.110293      -329.5378
  10   2.0000     -12.104494      -329.3800
  11   2.0000     -12.098115      -329.2064
  12   2.0000      -1.733663       -47.1754
  13   2.0000      -1.695138       -46.1271
  14   2.0000      -1.692440       -46.0536
  15   2.0000      -1.682837       -45.7923
  16   2.0000      -1.673974       -45.5511
  17   2.0000      -1.672054       -45.4989
  18   2.0000      -1.338565       -36.4242
  19   2.0000      -1.328488       -36.1500
  20   2.0000      -1.240158       -33.7464
  21   2.0000      -1.203945       -32.7610
  22   2.0000      -1.168043       -31.7841
  23   2.0000      -1.127208       -30.6729
  24   2.0000      -1.102284       -29.9947
  25   2.0000      -1.072875       -29.1944
  26   2.0000      -1.055163       -28.7125
  27   2.0000      -1.044851       -28.4318
  28   2.0000      -1.033216       -28.1152
  29   2.0000      -1.010491       -27.4968
  30   2.0000      -1.002513       -27.2798
  31   2.0000      -0.996188       -27.1077
  32   2.0000      -0.977779       -26.6067
  33   2.0000      -0.964852       -26.2550
  34   2.0000      -0.955608       -26.0034
  35   2.0000      -0.950922       -25.8759
  36   2.0000      -0.942619       -25.6500
  37   2.0000      -0.931415       -25.3451
  38   2.0000      -0.929721       -25.2990
  39   2.0000      -0.909359       -24.7449
  40   2.0000      -0.904771       -24.6201
  41   2.0000      -0.886416       -24.1206
  42   2.0000      -0.848131       -23.0788
  43   2.0000      -0.838298       -22.8113
  44   2.0000      -0.817804       -22.2536
  45   2.0000      -0.811611       -22.0851
  46   2.0000      -0.799840       -21.7648
  47   2.0000      -0.779987       -21.2245
  48   0.0000      -0.242509        -6.5990
  49   0.0000      -0.203447        -5.5361
  50   0.0000      -0.177285        -4.8242
  51   0.0000      -0.154896        -4.2149
  52   0.0000      -0.132825        -3.6144

MULLIKEN ATOMIC CHARGES
-----------------------
   0 C :    0.035384
   1 C :   -0.070292
   2 H :    0.067727
   3 C :    0.105145
   4 H :    0.094569
   5 C :    0.066704
   6 H :    0.069727
   7 C :    0.060800
   8 H :    0.093563
   9 C :    0.086481
  10 H :    0.064302
  11 O :   -0.270223
  12 O :   -0.411430
  13 O :   -0.455019
  14 O :   -0.419392
  15 O :   -0.416545
  16 O :   -0.454710
  17 H :    0.099432
  18 H :    0.102420
  19 H :    0.317482
  20 H :    0.319106
  21 H :    0.311337
  22 H :    0.292505
  23 H :    0.310926
Sum of atomic charges:    0.0000000

LOEWDIN ATOMIC CHARGES
----------------------
   0 C :   -0.309655
   1 C :   -0.313810
   2 H :    0.138383
   3 C :   -0.297454
   4 H :    0.157266
   5 C :   -0.315218
   6 H :    0.137889
   7 C :   -0.314396
   8 H :    0.148106
   9 C :   -0.412586
  10 H :    0.122144
  11 O :    0.179520
  12 O :    0.013070
  13 O :   -0.015891
  14 O :   -0.005012
  15 O :    0.003063
  16 O :   -0.041530
  17 H :    0.134409
  18 H :    0.120186
  19 H :    0.179576
  20 H :    0.177490
  21 H :    0.173990
  22 H :    0.169175
  23 H :    0.171284

  Mayer bond orders larger than 0.100000
B(  0-C ,  1-C ) :   0.9864 B(  0-C , 16-O ) :   1.0039 B(  0-C , 17-H ) :   0.9577
B(  0-C , 18-H ) :   0.9780 B(  1-C ,  2-H ) :   0.9494 B(  1-C ,  3-C ) :   0.9682
B(  1-C , 11-O ) :   0.9846 B(  1-C , 16-O ) :   0.1115 B(  3-C ,  4-H ) :   0.9285
B(  3-C ,  5-C ) :   0.9769 B(  3-C , 15-O ) :   0.9989 B(  5-C ,  6-H ) :   0.9570
B(  5-C ,  7-C ) :   0.9380 B(  5-C , 14-O ) :   1.1248 B(  7-C ,  8-H ) :   0.9673
B(  7-C ,  9-C ) :   0.9281 B(  7-C , 13-O ) :   1.1027 B(  9-C , 10-H ) :   0.9793
B(  9-C , 11-O ) :   1.0254 B(  9-C , 12-O ) :   1.2043 B( 12-O , 19-H ) :   0.8917
B( 13-O , 20-H ) :   0.8881 B( 14-O , 21-H ) :   0.8888 B( 15-O , 22-H ) :   0.8943
B( 16-O , 23-H ) :   0.8915

FINAL SINGLE POINT ENERGY      -687.245629255330

DIPOLE MOMENT
-------------

Method             : SCF
Type of density    : Electron Density
Multiplicity       :   1
Irrep              :   0
Energy             :  -687.2644439778295009 Eh
Relativity type    :
Basis              : AO
                                X                 Y                 Z
Electronic contribution:      1.978998628       0.081233060      -1.766712533
Nuclear contribution   :     -0.963521092      -1.262253387       3.043948363
                        -----------------------------------------
Total Dipole Moment    :      1.015477536      -1.181020327       1.277235829
                        -----------------------------------------
Magnitude (a.u.)       :      2.014282752
Magnitude (Debye)      :      5.119899869

Rotational constants in cm-1:             0.039255             0.026498             0.017537
Rotational constants in MHz :          1176.847657           794.392464           525.734754

                             ****ORCA TERMINATED NORMALLY****
TOTAL RUN TIME: 0 days 0 hours 4 minutes 51 seconds 560 msec
