                         Program Version 6.0.0  -   RELEASE  -
|  1> ! wb97x-v def2-tzvp def2/J RIJCOSX DEFGRID2 scfconv7 GCP(DFT/TZ) printgap
|  2> %output
|  3>     printlevel normal
|  4> end
|  5> %cpcm
|  6>     smd true
|  7>     smdsolvent "water"
|  8> end
|  9> * xyz 0 1
| 10> C -2.5742050578663864 -0.8509069797447294 0.3197813593648366
| 11> C -1.146113060569085 -0.41625026237042095 0.588980943993526
| 12> H -1.0027820745211573 -0.36762190763912544 1.682808513280877
| 13> C -0.8013296396225081 0.9499368725929596 -0.01913395600773627
| 14> H -1.022087614000653 0.9351697467177911 -1.092179824633556
| 15> C 0.6771422305422249 1.2557523908291743 0.1816527683338316
| 16> H 0.8645168947383631 1.394096272141744 1.260448161001061
| 17> C 1.5404032710264033 0.10248918885535732 -0.3119504873880972
| 18> H 1.426440997032369 -0.0021241749236850355 -1.401602430660547
| 19> C 1.0907216053391424 -1.1986938364410422 0.3416316616214116
| 20> H 1.2137542628318478 -1.1520145202095384 1.4364158810770467
| 21> O -0.28847752391910597 -1.428458582026145 0.030880085850854302
| 22> O 1.8378395136983543 -2.251304157259867 -0.20850698883822102
| 23> O 2.8939213722090025 0.41356868263208596 0.02975749472051469
| 24> O 0.9781987659392617 2.463550211251642 -0.5250106305449872
| 25> O -1.6252454863375012 1.9763688094774277 0.5392536639334732
| 26> O -2.891991609475153 -0.9034854950435736 -1.0758956614429749
| 27> H -3.259411338567397 -0.13002585476112868 0.7724865511381147
| 28> H -2.739460127107889 -1.8286231927584504 0.792304835556957
| 29> H 1.787320160589347 -3.005942697458646 0.3938674121216938
| 30> H 3.463937824037466 -0.2166297940957348 -0.43069475337458
| 31> H 1.9109790965417117 2.662624931315095 -0.36782373795775825
| 32> H -1.4385525404180144 2.018136845344322 1.4887439016540351
| 33> H -2.3292004076186257 -1.579744291316647 -1.4755091130442408
| 34> *
| 35>
| 36>                          ****END OF INPUT****

CARTESIAN COORDINATES (ANGSTROEM)
---------------------------------
  C     -2.574205   -0.850907    0.319781
  C     -1.146113   -0.416250    0.588981
  H     -1.002782   -0.367622    1.682809
  C     -0.801330    0.949937   -0.019134
  H     -1.022088    0.935170   -1.092180
  C      0.677142    1.255752    0.181653
  H      0.864517    1.394096    1.260448
  C      1.540403    0.102489   -0.311950
  H      1.426441   -0.002124   -1.401602
  C      1.090722   -1.198694    0.341632
  H      1.213754   -1.152015    1.436416
  O     -0.288478   -1.428459    0.030880
  O      1.837840   -2.251304   -0.208507
  O      2.893921    0.413569    0.029757
  O      0.978199    2.463550   -0.525011
  O     -1.625245    1.976369    0.539254
  O     -2.891992   -0.903485   -1.075896
  H     -3.259411   -0.130026    0.772487
  H     -2.739460   -1.828623    0.792305
  H      1.787320   -3.005943    0.393867
  H      3.463938   -0.216630   -0.430695
  H      1.910979    2.662625   -0.367824
  H     -1.438553    2.018137    1.488744
  H     -2.329200   -1.579744   -1.475509

 Total Charge           Charge          ....    0
 Multiplicity           Mult            ....    1
 Number of Electrons    NEL             ....   96
 Basis Dimension        Dim             ....  444

ORBITAL ENERGIES
----------------

  NO   OCC          E(Eh)            E(eV)
   0   2.0000     -21.692099      -590.2720
   1   2.0000     -21.690941      -590.2405
   2   2.0000     -21.684174      -590.0564
   3   2.0000     -21.681715      -589.9895
   4   2.0000     -21.679633      -589.9328
   5   2.0000     -21.677161      -589.8655
   6   2.0000     -12.151231      -330.6518
   7   2.0000     -12.103071      -329.3413
   8   2.0000     -12.102942      -329.3378
   9   2.0000     -12.101723      -329.3046
  10   2.0000     -12.100785      -329.2791
  11   2.0000     -12.090887      -329.0098
  12   2.0000      -1.722743       -46.8782
  13   2.0000      -1.689925       -45.9852
  14   2.0000      -1.686590       -45.8944
  15   2.0000      -1.681178       -45.7472
  16   2.0000      -1.677786       -45.6549
  17   2.0000      -1.675650       -45.5967
  18   2.0000      -1.331556       -36.2335
  19   2.0000      -1.318534       -35.8791
  20   2.0000      -1.233637       -33.5690
  21   2.0000      -1.196941       -32.5704
  22   2.0000      -1.164874       -31.6978
  23   2.0000      -1.123500       -30.5720
  24   2.0000      -1.092434       -29.7266
  25   2.0000      -1.065336       -28.9893
  26   2.0000      -1.050986       -28.5988
  27   2.0000      -1.040174       -28.3046
  28   2.0000      -1.032583       -28.0980
  29   2.0000      -1.007534       -27.4164
  30   2.0000      -0.998786       -27.1783
  31   2.0000      -0.993890       -27.0451
  32   2.0000      -0.974280       -26.5115
  33   2.0000      -0.966604       -26.3026
  34   2.0000      -0.957270       -26.0486
  35   2.0000      -0.945977       -25.7414
  36   2.0000      -0.942420       -25.6445
  37   2.0000      -0.933642       -25.4057
  38   2.0000      -0.926566       -25.2132
  39   2.0000      -0.906171       -24.6582
  40   2.0000      -0.902901       -24.5692
  41   2.0000      -0.879262       -23.9259
  42   2.0000      -0.845649       -23.0113
  43   2.0000      -0.833226       -22.6732
  44   2.0000      -0.810645       -22.0588
  45   2.0000      -0.801686       -21.8150
  46   2.0000      -0.794795       -21.6275
  47   2.0000      -0.770967       -20.9791
  48   0.0000      -0.233876        -6.3641
  49   0.0000      -0.192969        -5.2510
  50   0.0000      -0.168914        -4.5964
  51   0.0000      -0.147960        -4.0262
  52   0.0000      -0.124968        -3.4006

MULLIKEN ATOMIC CHARGES
-----------------------
   0 C :   -0.007929
   1 C :   -0.018965
   2 H :    0.124295
   3 C :    0.116553
   4 H :    0.104081
   5 C :    0.081501
   6 H :    0.116380
   7 C :    0.069250
   8 H :    0.102828
   9 C :    0.092719
  10 H :    0.103187
  11 O :   -0.329755
  12 O :   -0.489779
  13 O :   -0.526739
  14 O :   -0.526981
  15 O :   -0.536980
  16 O :   -0.555496
  17 H :    0.125567
  18 H :    0.131769
  19 H :    0.377322
  20 H :    0.365217
  21 H :    0.360164
  22 H :    0.362292
  23 H :    0.359501
Sum of atomic charges:    0.0000000

LOEWDIN ATOMIC CHARGES
----------------------
   0 C :   -0.308763
   1 C :   -0.299730
   2 H :    0.159260
   3 C :   -0.301343
   4 H :    0.153543
   5 C :   -0.308107
   6 H :    0.154096
   7 C :   -0.310818
   8 H :    0.151820
   9 C :   -0.404086
  10 H :    0.138003
  11 O :    0.159984
  12 O :   -0.012061
  13 O :   -0.038577
  14 O :   -0.047176
  15 O :   -0.040337
  16 O :   -0.082407
  17 H :    0.136939
  18 H :    0.129615
  19 H :    0.201408
  20 H :    0.193673
  21 H :    0.190069
  22 H :    0.197141
  23 H :    0.187854

  Mayer bond orders larger than 0.100000
B(  0-C ,  1-C ) :   0.9643 B(  0-C , 16-O ) :   0.9646 B(  0-C , 17-H ) :   0.9674
B(  0-C , 18-H ) :   0.9790 B(  1-C ,  2-H ) :   0.9545 B(  1-C ,  3-C ) :   0.9727
B(  1-C , 11-O ) :   0.9569 B(  3-C ,  4-H ) :   0.9341 B(  3-C ,  5-C ) :   0.9854
B(  3-C , 15-O ) :   0.9623 B(  5-C ,  6-H ) :   0.9549 B(  5-C ,  7-C ) :   0.9665
B(  5-C , 14-O ) :   1.0540 B(  7-C ,  8-H ) :   0.9569 B(  7-C ,  9-C ) :   0.9527
B(  7-C , 13-O ) :   1.0765 B(  9-C , 10-H ) :   0.9784 B(  9-C , 11-O ) :   1.0119
B(  9-C , 12-O ) :   1.1936 B( 12-O , 19-H ) :   0.8531 B( 13-O , 20-H ) :   0.8581
B( 14-O , 21-H ) :   0.8601 B( 15-O , 22-H ) :   0.8593 B( 16-O , 23-H ) :   0.8623

FINAL SINGLE POINT ENERGY      -687.288100856203

DIPOLE MOMENT
-------------

Method             : SCF
Type of density    : Electron Density
Multiplicity       :   1
Irrep              :   0
Energy             :  -687.3069155787026148 Eh
Relativity type    :
Basis              : AO
                                X                 Y                 Z
Electronic contribution:      2.332105985      -0.360835910      -1.017699633
Nuclear contribution   :     -0.963521092      -1.262253387       3.043948363
                        -----------------------------------------
Total Dipole Moment    :      1.368584893      -1.623089297       2.026248730
                        -----------------------------------------
Magnitude (a.u.)       :      2.934813008
Magnitude (Debye)      :      7.459701834

Rotational constants in cm-1:             0.039255             0.026498             0.017537
Rotational constants in MHz :          1176.847657           794.392464           525.734754

                             ****ORCA TERMINATED NORMALLY****
TOTAL RUN TIME: 0 days 0 hours 5 minutes 24 seconds 854 msec
