                         Program Version 6.0.0  -   RELEASE  -
|  1> ! pbe def2-sv(p) def2/J RI DEFGRID1 loosescf d4 GCP(DFT/SV(P)) printgap
|  2> %output
|  3>     printlevel normal
|  4> end
|  5> * xyz 0 1
|  6> C -2.4515482821 -0.8608255785 0.1665547872
|  7> C -1.0234665637 -0.4878170469 0.5679611239
|  8> H -0.8763211772 -0.7340309271 1.6323134521
|  9> C -0.7449494995 1.0219078892 0.3964826132
| 10> H -1.5871287788 1.4815001867 -0.1334180369
| 11> C 0.5217110292 1.2321466578 -0.4643308618
| 12> H 0.8373938748 2.2796104727 -0.3916538208
| 13> C 1.6656067968 0.357784823 0.0880600888
| 14> H 2.5176146117 0.3946065643 -0.5991659875
| 15> C 1.2077012214 -1.120475061 0.1660063099
| 16> H 1.3224979025 -1.4600433235 1.2185859673
| 17> O -0.1452571426 -1.2776654596 -0.2113842947
| 18> O 1.9782380396 -1.8751088443 -0.6930849474
| 19> O 2.1237217432 0.8316560478 1.3266232981
| 20> O 0.271030123 1.0072598717 -1.823658642
| 21> O -0.5860040171 1.5707793666 1.6888922646
| 22> O -2.7160605298 -0.3521881539 -1.1192313395
| 23> H -3.1391743453 -0.431158346 0.9058907819
| 24> H -2.5289904388 -1.953232522 0.1813544223
| 25> H 1.6122575911 -2.7715186183 -0.7623552616
| 26> H 1.3524335737 1.0470281088 1.8835161929
| 27> H -0.0883789341 0.1125206783 -1.9336584144
| 28> H -0.7146968317 2.5295786628 1.6583180262
| 29> H -3.5708050826 -0.683384158 -1.4273008301
| 30> *
| 31>
| 32>                          ****END OF INPUT****

CARTESIAN COORDINATES (ANGSTROEM)
---------------------------------
  C     -2.451548   -0.860826    0.166555
  C     -1.023467   -0.487817    0.567961
  H     -0.876321   -0.734031    1.632313
  C     -0.744949    1.021908    0.396483
  H     -1.587129    1.481500   -0.133418
  C      0.521711    1.232147   -0.464331
  H      0.837394    2.279610   -0.391654
  C      1.665607    0.357785    0.088060
  H      2.517615    0.394607   -0.599166
  C      1.207701   -1.120475    0.166006
  H      1.322498   -1.460043    1.218586
  O     -0.145257   -1.277665   -0.211384
  O      1.978238   -1.875109   -0.693085
  O      2.123722    0.831656    1.326623
  O      0.271030    1.007260   -1.823659
  O     -0.586004    1.570779    1.688892
  O     -2.716061   -0.352188   -1.119231
  H     -3.139174   -0.431158    0.905891
  H     -2.528990   -1.953233    0.181354
  H      1.612258   -2.771519   -0.762355
  H      1.352434    1.047028    1.883516
  H     -0.088379    0.112521   -1.933658
  H     -0.714697    2.529579    1.658318
  H     -3.570805   -0.683384   -1.427301

 Total Charge           Charge          ....    0
 Multiplicity           Mult            ....    1
 Number of Electrons    NEL             ....   96
 Basis Dimension        Dim             ....  192

ORBITAL ENERGIES
----------------

  NO   OCC          E(Eh)            E(eV)
   0   2.0000     -18.778673      -510.9937
   1   2.0000     -18.775406      -510.9048
   2   2.0000     -18.764985      -510.6212
   3   2.0000     -18.758152      -510.4353
   4   2.0000     -18.734662      -509.7961
   5   2.0000     -18.731171      -509.7011
   6   2.0000      -9.980074      -271.5716
   7   2.0000      -9.954814      -270.8843
   8   2.0000      -9.947665      -270.6897
   9   2.0000      -9.945830      -270.6398
  10   2.0000      -9.933799      -270.3124
  11   2.0000      -9.924644      -270.0633
  12   2.0000      -0.987021       -26.8582
  13   2.0000      -0.952525       -25.9195
  14   2.0000      -0.940601       -25.5950
  15   2.0000      -0.919422       -25.0187
  16   2.0000      -0.913793       -24.8656
  17   2.0000      -0.905802       -24.6481
  18   2.0000      -0.707484       -19.2516
  19   2.0000      -0.677101       -18.4248
  20   2.0000      -0.623908       -16.9774
  21   2.0000      -0.586650       -15.9636
  22   2.0000      -0.560050       -15.2397
  23   2.0000      -0.518002       -14.0956
  24   2.0000      -0.508539       -13.8381
  25   2.0000      -0.483817       -13.1653
  26   2.0000      -0.482350       -13.1254
  27   2.0000      -0.470101       -12.7921
  28   2.0000      -0.465481       -12.6664
  29   2.0000      -0.429034       -11.6746
  30   2.0000      -0.404003       -10.9935
  31   2.0000      -0.397393       -10.8136
  32   2.0000      -0.384367       -10.4592
  33   2.0000      -0.371895       -10.1198
  34   2.0000      -0.354376        -9.6431
  35   2.0000      -0.345406        -9.3990
  36   2.0000      -0.329415        -8.9638
  37   2.0000      -0.317629        -8.6431
  38   2.0000      -0.308249        -8.3879
  39   2.0000      -0.300031        -8.1643
  40   2.0000      -0.288805        -7.8588
  41   2.0000      -0.265238        -7.2175
  42   2.0000      -0.252017        -6.8577
  43   2.0000      -0.246986        -6.7208
  44   2.0000      -0.233248        -6.3470
  45   2.0000      -0.230471        -6.2714
  46   2.0000      -0.207384        -5.6432
  47   2.0000      -0.188808        -5.1377
  48   0.0000       0.008333         0.2268
  49   0.0000       0.012327         0.3354
  50   0.0000       0.037300         1.0150
  51   0.0000       0.053235         1.4486
  52   0.0000       0.058103         1.5811

MULLIKEN ATOMIC CHARGES
-----------------------
   0 C :    0.050849
   1 C :    0.034584
   2 H :    0.069256
   3 C :   -0.005359
   4 H :    0.089861
   5 C :    0.024583
   6 H :    0.064557
   7 C :    0.060444
   8 H :    0.086345
   9 C :    0.193818
  10 H :    0.039497
  11 O :   -0.318106
  12 O :   -0.376860
  13 O :   -0.432752
  14 O :   -0.418916
  15 O :   -0.418212
  16 O :   -0.430483
  17 H :    0.080878
  18 H :    0.082312
  19 H :    0.301638
  20 H :    0.293460
  21 H :    0.306186
  22 H :    0.314130
  23 H :    0.308290
Sum of atomic charges:   -0.0000000

LOEWDIN ATOMIC CHARGES
----------------------
   0 C :   -0.123170
   1 C :   -0.061682
   2 H :    0.111642
   3 C :   -0.084589
   4 H :    0.114563
   5 C :   -0.081124
   6 H :    0.111959
   7 C :   -0.083935
   8 H :    0.125279
   9 C :   -0.002242
  10 H :    0.079622
  11 O :   -0.158780
  12 O :   -0.290029
  13 O :   -0.323754
  14 O :   -0.312637
  15 O :   -0.309291
  16 O :   -0.335607
  17 H :    0.103335
  18 H :    0.106083
  19 H :    0.286414
  20 H :    0.265515
  21 H :    0.275703
  22 H :    0.294567
  23 H :    0.292156

  Mayer bond orders larger than 0.100000
B(  0-C ,  1-C ) :   1.0699 B(  0-C , 16-O ) :   1.0880 B(  0-C , 17-H ) :   0.9139
B(  0-C , 18-H ) :   0.9093 B(  1-C ,  2-H ) :   0.8701 B(  1-C ,  3-C ) :   0.9898
B(  1-C , 11-O ) :   1.0253 B(  3-C ,  4-H ) :   0.8872 B(  3-C ,  5-C ) :   0.9864
B(  3-C , 15-O ) :   1.0192 B(  5-C ,  6-H ) :   0.8961 B(  5-C ,  7-C ) :   0.9840
B(  5-C , 14-O ) :   1.0667 B(  7-C ,  8-H ) :   0.8864 B(  7-C ,  9-C ) :   0.9427
B(  7-C , 13-O ) :   1.0607 B(  9-C , 10-H ) :   0.8896 B(  9-C , 11-O ) :   0.9878
B(  9-C , 12-O ) :   1.1719 B( 12-O , 19-H ) :   0.8403 B( 13-O , 20-H ) :   0.8100
B( 14-O , 21-H ) :   0.8233 B( 15-O , 20-H ) :   0.1088 B( 15-O , 22-H ) :   0.8408
B( 16-O , 23-H ) :   0.8462

Dispersion correction           -0.025171948
FINAL SINGLE POINT ENERGY      -685.692677809521

DIPOLE MOMENT
-------------

Method             : SCF
Type of density    : Electron Density
Multiplicity       :   1
Irrep              :   0
Energy             :  -685.8244175997717775 Eh
Relativity type    :
Basis              : AO
                                X                 Y                 Z
Electronic contribution:      2.671631495      -0.285199658      -1.553799090
Nuclear contribution   :     -4.548887587      -0.178278187       2.082072484
                        -----------------------------------------
Total Dipole Moment    :     -1.877256092      -0.463477845       0.528273394
                        -----------------------------------------
Magnitude (a.u.)       :      2.004488694
Magnitude (Debye)      :      5.095005355

Rotational constants in cm-1:             0.040283             0.028036             0.023084
Rotational constants in MHz :          1207.660887           840.494716           692.048623

                             ****ORCA TERMINATED NORMALLY****
TOTAL RUN TIME: 0 days 0 hours 0 minutes 12 seconds 319 msec
