                         Program Version 6.0.0  -   RELEASE  -
|  1> ! r2scan-3c def2/J RI DEFGRID2 scfconv6 printgap
|  2> %output
|  3>     printlevel normal
|  4> end
|  5> * xyz 0 1
|  6> C -1.6855796078 0.6137864105 -0.6282477679
|  7> C -1.1978363407 -0.0785029375 0.6384303345
|  8> C 0.0387166337 -0.9461338786 0.3733168114
|  9> C 1.1795982615 -0.1462814484 -0.0240522504
| 10> C 2.1105646806 0.5343772582 -0.3448842082
| 11> H -1.9672552116 -0.1198586942 -1.3808307282
| 12> H -2.5507186724 1.2365180832 -0.4138338013
| 13> H -0.8987924384 1.2424072258 -1.0398733009
| 14> H -0.9540153865 0.6720439815 1.3935418784
| 15> H -1.9915668323 -0.7136081592 1.0372275684
| 16> H -0.1800923664 -1.6663183824 -0.4198191509
| 17> H 0.3016877936 -1.5008046541 1.278041651
| 18> H 2.9325581825 1.1207669347 -0.6279875101
| 19> *
| 20>
| 21>                          ****END OF INPUT****

CARTESIAN COORDINATES (ANGSTROEM)
---------------------------------
  C     -1.685580    0.613786   -0.628248
  C     -1.197836   -0.078503    0.638430
  C      0.038717   -0.946134    0.373317
  C      1.179598   -0.146281   -0.024052
  C      2.110565    0.534377   -0.344884
  H     -1.967255   -0.119859   -1.380831
  H     -2.550719    1.236518   -0.413834
  H     -0.898792    1.242407   -1.039873
  H     -0.954015    0.672044    1.393542
  H     -1.991567   -0.713608    1.037228
  H     -0.180092   -1.666318   -0.419819
  H      0.301688   -1.500805    1.278042
  H      2.932558    1.120767   -0.627988

 Total Charge           Charge          ....    0
 Multiplicity           Mult            ....    1
 Number of Electrons    NEL             ....   38
 Basis Dimension        Dim             ....  135

ORBITAL ENERGIES
----------------

  NO   OCC          E(Eh)            E(eV)
   0   2.0000     -10.056101      -273.6404
   1   2.0000     -10.037400      -273.1316
   2   2.0000     -10.030723      -272.9499
   3   2.0000     -10.017919      -272.6014
   4   2.0000     -10.016434      -272.5610
   5   2.0000      -0.782419       -21.2907
   6   2.0000      -0.711492       -19.3607
   7   2.0000      -0.660317       -17.9681
   8   2.0000      -0.571294       -15.5457
   9   2.0000      -0.497008       -13.5243
  10   2.0000      -0.448226       -12.1969
  11   2.0000      -0.430861       -11.7243
  12   2.0000      -0.397880       -10.8269
  13   2.0000      -0.378908       -10.3106
  14   2.0000      -0.327298        -8.9062
  15   2.0000      -0.324086        -8.8188
  16   2.0000      -0.311400        -8.4736
  17   2.0000      -0.244813        -6.6617
  18   2.0000      -0.243610        -6.6290
  19   0.0000       0.022320         0.6074
  20   0.0000       0.027700         0.7537
  21   0.0000       0.090983         2.4758
  22   0.0000       0.120514         3.2793
  23   0.0000       0.132098         3.5946

MULLIKEN ATOMIC CHARGES
-----------------------
   0 C :   -0.473512
   1 C :   -0.232738
   2 C :   -0.386542
   3 C :    0.056854
   4 C :   -0.190102
   5 H :    0.138092
   6 H :    0.145425
   7 H :    0.165620
   8 H :    0.143353
   9 H :    0.146277
  10 H :    0.166474
  11 H :    0.164430
  12 H :    0.156370
Sum of atomic charges:   -0.0000000

LOEWDIN ATOMIC CHARGES
----------------------
   0 C :   -0.420308
   1 C :   -0.297983
   2 C :   -0.281377
   3 C :   -0.083609
   4 C :   -0.220794
   5 H :    0.149754
   6 H :    0.151737
   7 H :    0.160761
   8 H :    0.158708
   9 H :    0.152390
  10 H :    0.175354
  11 H :    0.176227
  12 H :    0.179140

  Mayer bond orders larger than 0.100000
B(  0-C ,  1-C ) :   0.9203 B(  0-C ,  5-H ) :   0.9764 B(  0-C ,  6-H ) :   0.9685
B(  0-C ,  7-H ) :   0.9769 B(  1-C ,  2-C ) :   0.8917 B(  1-C ,  8-H ) :   0.9695
B(  1-C ,  9-H ) :   0.9693 B(  2-C ,  3-C ) :   0.9512 B(  2-C , 10-H ) :   1.0078
B(  2-C , 11-H ) :   0.9627 B(  3-C ,  4-C ) :   2.6521 B(  4-C , 12-H ) :   1.0490

Dispersion correction           -0.002796268
FINAL SINGLE POINT ENERGY      -195.210456921160

DIPOLE MOMENT
-------------

Method             : SCF
Type of density    : Electron Density
Multiplicity       :   1
Irrep              :   0
Energy             :  -195.2123300842141873 Eh
Relativity type    :
Basis              : AO
                                X                 Y                 Z
Electronic contribution:      4.670975458      -0.377264961       0.261652453
Nuclear contribution   :     -4.980001607       0.254381989      -0.162804228
                        -----------------------------------------
Total Dipole Moment    :     -0.309026149      -0.122882972       0.098848225
                        -----------------------------------------
Magnitude (a.u.)       :      0.346941432
Magnitude (Debye)      :      0.881855038

Rotational constants in cm-1:             0.334407             0.107794             0.089838
Rotational constants in MHz :         10025.263985          3231.584021          2693.264361

                             ****ORCA TERMINATED NORMALLY****
TOTAL RUN TIME: 0 days 0 hours 0 minutes 11 seconds 322 msec
