                         Program Version 6.0.0  -   RELEASE  -
|  1> ! pbe def2-sv(p) def2/J RI DEFGRID1 loosescf d4 GCP(DFT/SV(P)) printgap
|  2> %output
|  3>     printlevel normal
|  4> end
|  5> * xyz 0 1
|  6> C -2.384696017 -0.7846267013 -0.0699832236
|  7> C -0.9630818767 -0.3519461476 0.2931683414
|  8> H -0.9463041743 -0.0986023167 1.3630688139
|  9> C -0.5085444816 0.8674361802 -0.5299567304
| 10> H -0.4721162522 0.577969734 -1.5865998682
| 11> C 0.9040861862 1.3095241621 -0.0852778183
| 12> H 0.809165416 2.0898904127 0.6784283122
| 13> C 1.679762606 0.1400973693 0.5581008899
| 14> H 2.7479509649 0.3018769046 0.355831646
| 15> C 1.2590411062 -1.1716570765 -0.1215265281
| 16> H 1.7990840666 -2.026122704 0.3173037608
| 17> O -0.099360289 -1.4651629961 0.0691872615
| 18> O 1.5771652698 -1.0401639586 -1.4770766362
| 19> O 1.418785413 0.1348662914 1.9363417547
| 20> O 1.6305447483 1.8936943985 -1.1321808155
| 21> O -1.4376696959 1.9161736569 -0.4729517143
| 22> O -2.9830470884 -1.3757740644 1.0612699069
| 23> H -2.326729449 -1.4975361867 -0.9002027892
| 24> H -2.945410246 0.1038016655 -0.386137286
| 25> H 1.3745205348 -1.8641700014 -1.9460782861
| 26> H 1.9824933943 -0.5128544891 2.383682199
| 27> H 1.7860141381 1.2233219544 -1.8162023998
| 28> H -1.4703453061 2.2760142831 0.4255933311
| 29> H -3.8675347094 -1.6889038737 0.8253374674
| 30> *
| 31>
| 32>                          ****END OF INPUT****

CARTESIAN COORDINATES (ANGSTROEM)
---------------------------------
  C     -2.384696   -0.784627   -0.069983
  C     -0.963082   -0.351946    0.293168
  H     -0.946304   -0.098602    1.363069
  C     -0.508544    0.867436   -0.529957
  H     -0.472116    0.577970   -1.586600
  C      0.904086    1.309524   -0.085278
  H      0.809165    2.089890    0.678428
  C      1.679763    0.140097    0.558101
  H      2.747951    0.301877    0.355832
  C      1.259041   -1.171657   -0.121527
  H      1.799084   -2.026123    0.317304
  O     -0.099360   -1.465163    0.069187
  O      1.577165   -1.040164   -1.477077
  O      1.418785    0.134866    1.936342
  O      1.630545    1.893694   -1.132181
  O     -1.437670    1.916174   -0.472952
  O     -2.983047   -1.375774    1.061270
  H     -2.326729   -1.497536   -0.900203
  H     -2.945410    0.103802   -0.386137
  H      1.374521   -1.864170   -1.946078
  H      1.982493   -0.512854    2.383682
  H      1.786014    1.223322   -1.816202
  H     -1.470345    2.276014    0.425593
  H     -3.867535   -1.688904    0.825337

 Total Charge           Charge          ....    0
 Multiplicity           Mult            ....    1
 Number of Electrons    NEL             ....   96
 Basis Dimension        Dim             ....  192

ORBITAL ENERGIES
----------------

  NO   OCC          E(Eh)            E(eV)
   0   2.0000     -18.777171      -510.9528
   1   2.0000     -18.764519      -510.6085
   2   2.0000     -18.763296      -510.5752
   3   2.0000     -18.749286      -510.1940
   4   2.0000     -18.738724      -509.9066
   5   2.0000     -18.737447      -509.8718
   6   2.0000      -9.990289      -271.8496
   7   2.0000      -9.945348      -270.6267
   8   2.0000      -9.938579      -270.4425
   9   2.0000      -9.935770      -270.3660
  10   2.0000      -9.932781      -270.2847
  11   2.0000      -9.921125      -269.9675
  12   2.0000      -0.984372       -26.7861
  13   2.0000      -0.941125       -25.6093
  14   2.0000      -0.932397       -25.3718
  15   2.0000      -0.921860       -25.0851
  16   2.0000      -0.912629       -24.8339
  17   2.0000      -0.908435       -24.7198
  18   2.0000      -0.696959       -18.9652
  19   2.0000      -0.690435       -18.7877
  20   2.0000      -0.616290       -16.7701
  21   2.0000      -0.589428       -16.0392
  22   2.0000      -0.556096       -15.1321
  23   2.0000      -0.524846       -14.2818
  24   2.0000      -0.505562       -13.7570
  25   2.0000      -0.487150       -13.2560
  26   2.0000      -0.466139       -12.6843
  27   2.0000      -0.464620       -12.6430
  28   2.0000      -0.443017       -12.0551
  29   2.0000      -0.424944       -11.5633
  30   2.0000      -0.418194       -11.3796
  31   2.0000      -0.388507       -10.5718
  32   2.0000      -0.379828       -10.3356
  33   2.0000      -0.365981        -9.9588
  34   2.0000      -0.359558        -9.7841
  35   2.0000      -0.348178        -9.4744
  36   2.0000      -0.340643        -9.2694
  37   2.0000      -0.308841        -8.4040
  38   2.0000      -0.297901        -8.1063
  39   2.0000      -0.284429        -7.7397
  40   2.0000      -0.278916        -7.5897
  41   2.0000      -0.266457        -7.2507
  42   2.0000      -0.257934        -7.0187
  43   2.0000      -0.250988        -6.8297
  44   2.0000      -0.221557        -6.0289
  45   2.0000      -0.216624        -5.8946
  46   2.0000      -0.204999        -5.5783
  47   2.0000      -0.198231        -5.3941
  48   0.0000       0.011261         0.3064
  49   0.0000       0.018329         0.4988
  50   0.0000       0.035294         0.9604
  51   0.0000       0.035726         0.9722
  52   0.0000       0.060947         1.6585

MULLIKEN ATOMIC CHARGES
-----------------------
   0 C :    0.069994
   1 C :    0.032783
   2 H :    0.068585
   3 C :    0.049124
   4 H :    0.047613
   5 C :    0.112739
   6 H :    0.057309
   7 C :    0.001678
   8 H :    0.075169
   9 C :    0.165963
  10 H :    0.051325
  11 O :   -0.306459
  12 O :   -0.403607
  13 O :   -0.406706
  14 O :   -0.425543
  15 O :   -0.406541
  16 O :   -0.436692
  17 H :    0.059570
  18 H :    0.078773
  19 H :    0.308726
  20 H :    0.306354
  21 H :    0.302947
  22 H :    0.300410
  23 H :    0.296485
Sum of atomic charges:    0.0000000

LOEWDIN ATOMIC CHARGES
----------------------
   0 C :   -0.130220
   1 C :   -0.067898
   2 H :    0.112702
   3 C :   -0.079207
   4 H :    0.114460
   5 C :   -0.061851
   6 H :    0.118492
   7 C :   -0.090703
   8 H :    0.110010
   9 C :   -0.011297
  10 H :    0.090260
  11 O :   -0.143777
  12 O :   -0.316317
  13 O :   -0.306700
  14 O :   -0.312341
  15 O :   -0.302647
  16 O :   -0.346526
  17 H :    0.096627
  18 H :    0.101101
  19 H :    0.289783
  20 H :    0.290908
  21 H :    0.277015
  22 H :    0.284183
  23 H :    0.283945

  Mayer bond orders larger than 0.100000
B(  0-C ,  1-C ) :   1.0493 B(  0-C , 16-O ) :   1.0956 B(  0-C , 17-H ) :   0.9015
B(  0-C , 18-H ) :   0.9076 B(  1-C ,  2-H ) :   0.8686 B(  1-C ,  3-C ) :   1.0290
B(  1-C , 11-O ) :   0.9749 B(  3-C ,  4-H ) :   0.8419 B(  3-C ,  5-C ) :   1.0092
B(  3-C , 15-O ) :   1.0220 B(  5-C ,  6-H ) :   0.8588 B(  5-C ,  7-C ) :   0.9886
B(  5-C , 14-O ) :   1.0577 B(  7-C ,  8-H ) :   0.8843 B(  7-C ,  9-C ) :   1.0187
B(  7-C , 13-O ) :   1.0381 B(  9-C , 10-H ) :   0.8946 B(  9-C , 11-O ) :   1.0967
B(  9-C , 12-O ) :   1.1021 B( 12-O , 19-H ) :   0.8368 B( 13-O , 20-H ) :   0.8441
B( 14-O , 21-H ) :   0.8346 B( 15-O , 22-H ) :   0.8466 B( 16-O , 23-H ) :   0.8528

Dispersion correction           -0.024556463
FINAL SINGLE POINT ENERGY      -685.685978433006

DIPOLE MOMENT
-------------

Method             : SCF
Type of density    : Electron Density
Multiplicity       :   1
Irrep              :   0
Energy             :  -685.8160919153756367 Eh
Relativity type    :
Basis              : AO
                                X                 Y                 Z
Electronic contribution:      1.625923767      -0.051344827       0.223519555
Nuclear contribution   :     -1.433084114      -1.045412151      -0.268521587
                        -----------------------------------------
Total Dipole Moment    :      0.192839653      -1.096756978      -0.045002032
                        -----------------------------------------
Magnitude (a.u.)       :      1.114490100
Magnitude (Debye)      :      2.832808707

Rotational constants in cm-1:             0.041313             0.025183             0.021422
Rotational constants in MHz :          1238.545320           754.966613           642.201887

                             ****ORCA TERMINATED NORMALLY****
TOTAL RUN TIME: 0 days 0 hours 0 minutes 11 seconds 833 msec
