                         Program Version 6.0.0  -   RELEASE  -
|  1> ! r2scan-3c def2/J RI DEFGRID2 scfconv6 printgap
|  2> %output
|  3>     printlevel normal
|  4> end
|  5> * xyz 0 1
|  6> C -1.5893325703 -0.1301193806 0.4961961059
|  7> C -0.6606391468 0.5104281936 -0.5283580065
|  8> C 0.6675319468 -0.2350882305 -0.6327992249
|  9> O 1.3825241404 -0.0772173068 0.5786150847
| 10> H -1.0963284118 -0.1689089535 1.4642573009
| 11> H -2.5050789673 0.4467815833 0.5926259633
| 12> H -1.8457047004 -1.1437313763 0.1963621999
| 13> H -0.4501627317 1.5405317021 -0.2368039648
| 14> H -1.1323354494 0.5170967106 -1.5118068728
| 15> H 0.4768419078 -1.2996230297 -0.8247768442
| 16> H 1.2525307575 0.1729675384 -1.4689580501
| 17> H 2.2114673714 -0.5698810526 0.5282874972
| 18> *
| 19>
| 20>                          ****END OF INPUT****

CARTESIAN COORDINATES (ANGSTROEM)
---------------------------------
  C     -1.589333   -0.130119    0.496196
  C     -0.660639    0.510428   -0.528358
  C      0.667532   -0.235088   -0.632799
  O      1.382524   -0.077217    0.578615
  H     -1.096328   -0.168909    1.464257
  H     -2.505079    0.446782    0.592626
  H     -1.845705   -1.143731    0.196362
  H     -0.450163    1.540532   -0.236804
  H     -1.132335    0.517097   -1.511807
  H      0.476842   -1.299623   -0.824777
  H      1.252531    0.172968   -1.468958
  H      2.211467   -0.569881    0.528287

 Total Charge           Charge          ....    0
 Multiplicity           Mult            ....    1
 Number of Electrons    NEL             ....   34
 Basis Dimension        Dim             ....  121

ORBITAL ENERGIES
----------------

  NO   OCC          E(Eh)            E(eV)
   0   2.0000     -18.945882      -515.5437
   1   2.0000     -10.073083      -274.1025
   2   2.0000     -10.024449      -272.7791
   3   2.0000     -10.010620      -272.4028
   4   2.0000      -0.982241       -26.7281
   5   2.0000      -0.741837       -20.1864
   6   2.0000      -0.638727       -17.3806
   7   2.0000      -0.547485       -14.8978
   8   2.0000      -0.486055       -13.2262
   9   2.0000      -0.428735       -11.6665
  10   2.0000      -0.391975       -10.6662
  11   2.0000      -0.385540       -10.4911
  12   2.0000      -0.337769        -9.1912
  13   2.0000      -0.317836        -8.6487
  14   2.0000      -0.307734        -8.3739
  15   2.0000      -0.286532        -7.7969
  16   2.0000      -0.234121        -6.3708
  17   0.0000       0.062536         1.7017
  18   0.0000       0.110482         3.0064
  19   0.0000       0.126084         3.4309
  20   0.0000       0.136503         3.7144
  21   0.0000       0.156564         4.2603

MULLIKEN ATOMIC CHARGES
-----------------------
   0 C :   -0.477990
   1 C :   -0.218426
   2 C :   -0.112142
   3 O :   -0.438335
   4 H :    0.167077
   5 H :    0.143412
   6 H :    0.136110
   7 H :    0.141591
   8 H :    0.130294
   9 H :    0.114903
  10 H :    0.122442
  11 H :    0.291063
Sum of atomic charges:   -0.0000000

LOEWDIN ATOMIC CHARGES
----------------------
   0 C :   -0.423608
   1 C :   -0.294471
   2 C :    0.002446
   3 O :   -0.634698
   4 H :    0.161724
   5 H :    0.149558
   6 H :    0.148713
   7 H :    0.161317
   8 H :    0.155502
   9 H :    0.153575
  10 H :    0.154140
  11 H :    0.265801

  Mayer bond orders larger than 0.100000
B(  0-C ,  1-C ) :   0.9147 B(  0-C ,  4-H ) :   0.9773 B(  0-C ,  5-H ) :   0.9737
B(  0-C ,  6-H ) :   0.9783 B(  1-C ,  2-C ) :   0.9668 B(  1-C ,  7-H ) :   0.9671
B(  1-C ,  8-H ) :   0.9612 B(  2-C ,  3-O ) :   0.9092 B(  2-C ,  9-H ) :   0.9671
B(  2-C , 10-H ) :   0.9627 B(  3-O , 11-H ) :   0.9022

Dispersion correction           -0.002098357
FINAL SINGLE POINT ENERGY      -194.298673647303

DIPOLE MOMENT
-------------

Method             : SCF
Type of density    : Electron Density
Multiplicity       :   1
Irrep              :   0
Energy             :  -194.3035253592987885 Eh
Relativity type    :
Basis              : AO
                                X                 Y                 Z
Electronic contribution:      3.071862077       0.177136763       0.738016483
Nuclear contribution   :     -2.877219567      -0.474707340      -1.174246853
                        -----------------------------------------
Total Dipole Moment    :      0.194642510      -0.297570577      -0.436230370
                        -----------------------------------------
Magnitude (a.u.)       :      0.562788496
Magnitude (Debye)      :      1.430494673

Rotational constants in cm-1:             0.491472             0.168298             0.144368
Rotational constants in MHz :         14733.962870          5045.451876          4328.058312

                             ****ORCA TERMINATED NORMALLY****
TOTAL RUN TIME: 0 days 0 hours 0 minutes 11 seconds 590 msec
