                         Program Version 6.0.0  -   RELEASE  -
|  1> ! r2scan-3c def2/J RI DEFGRID2 scfconv6 printgap
|  2> %output
|  3>     printlevel normal
|  4> end
|  5> %cpcm
|  6>     smd true
|  7>     smdsolvent "water"
|  8> end
|  9> * xyz 0 1
| 10> C -1.5893325703 -0.1301193806 0.4961961059
| 11> C -0.6606391468 0.5104281936 -0.5283580065
| 12> C 0.6675319468 -0.2350882305 -0.6327992249
| 13> O 1.3825241404 -0.0772173068 0.5786150847
| 14> H -1.0963284118 -0.1689089535 1.4642573009
| 15> H -2.5050789673 0.4467815833 0.5926259633
| 16> H -1.8457047004 -1.1437313763 0.1963621999
| 17> H -0.4501627317 1.5405317021 -0.2368039648
| 18> H -1.1323354494 0.5170967106 -1.5118068728
| 19> H 0.4768419078 -1.2996230297 -0.8247768442
| 20> H 1.2525307575 0.1729675384 -1.4689580501
| 21> H 2.2114673714 -0.5698810526 0.5282874972
| 22> *
| 23>
| 24>                          ****END OF INPUT****

CARTESIAN COORDINATES (ANGSTROEM)
---------------------------------
  C     -1.589333   -0.130119    0.496196
  C     -0.660639    0.510428   -0.528358
  C      0.667532   -0.235088   -0.632799
  O      1.382524   -0.077217    0.578615
  H     -1.096328   -0.168909    1.464257
  H     -2.505079    0.446782    0.592626
  H     -1.845705   -1.143731    0.196362
  H     -0.450163    1.540532   -0.236804
  H     -1.132335    0.517097   -1.511807
  H      0.476842   -1.299623   -0.824777
  H      1.252531    0.172968   -1.468958
  H      2.211467   -0.569881    0.528287

 Total Charge           Charge          ....    0
 Multiplicity           Mult            ....    1
 Number of Electrons    NEL             ....   34
 Basis Dimension        Dim             ....  121

ORBITAL ENERGIES
----------------

  NO   OCC          E(Eh)            E(eV)
   0   2.0000     -18.948704      -515.6205
   1   2.0000     -10.066920      -273.9348
   2   2.0000     -10.019516      -272.6449
   3   2.0000     -10.008377      -272.3418
   4   2.0000      -0.983952       -26.7747
   5   2.0000      -0.738289       -20.0899
   6   2.0000      -0.635446       -17.2914
   7   2.0000      -0.543729       -14.7956
   8   2.0000      -0.482995       -13.1430
   9   2.0000      -0.425009       -11.5651
  10   2.0000      -0.389876       -10.6091
  11   2.0000      -0.383630       -10.4391
  12   2.0000      -0.339057        -9.2262
  13   2.0000      -0.315982        -8.5983
  14   2.0000      -0.304535        -8.2868
  15   2.0000      -0.285353        -7.7648
  16   2.0000      -0.237756        -6.4697
  17   0.0000       0.078257         2.1295
  18   0.0000       0.118136         3.2146
  19   0.0000       0.132211         3.5977
  20   0.0000       0.140547         3.8245
  21   0.0000       0.162779         4.4294

MULLIKEN ATOMIC CHARGES
-----------------------
   0 C :   -0.508020
   1 C :   -0.234166
   2 C :   -0.120689
   3 O :   -0.521668
   4 H :    0.156533
   5 H :    0.157307
   6 H :    0.154534
   7 H :    0.147142
   8 H :    0.149773
   9 H :    0.134749
  10 H :    0.139631
  11 H :    0.344874
Sum of atomic charges:   -0.0000000

LOEWDIN ATOMIC CHARGES
----------------------
   0 C :   -0.432022
   1 C :   -0.298327
   2 C :    0.004734
   3 O :   -0.669822
   4 H :    0.155923
   5 H :    0.153735
   6 H :    0.154028
   7 H :    0.160477
   8 H :    0.162821
   9 H :    0.162222
  10 H :    0.161941
  11 H :    0.284290

  Mayer bond orders larger than 0.100000
B(  0-C ,  1-C ) :   0.9028 B(  0-C ,  4-H ) :   0.9785 B(  0-C ,  5-H ) :   0.9703
B(  0-C ,  6-H ) :   0.9753 B(  1-C ,  2-C ) :   0.9518 B(  1-C ,  7-H ) :   0.9695
B(  1-C ,  8-H ) :   0.9576 B(  2-C ,  3-O ) :   0.8942 B(  2-C ,  9-H ) :   0.9675
B(  2-C , 10-H ) :   0.9632 B(  3-O , 11-H ) :   0.8754

Dispersion correction           -0.002098357
FINAL SINGLE POINT ENERGY      -194.304928704268

DIPOLE MOMENT
-------------

Method             : SCF
Type of density    : Electron Density
Multiplicity       :   1
Irrep              :   0
Energy             :  -194.3097804162632940 Eh
Relativity type    :
Basis              : AO
                                X                 Y                 Z
Electronic contribution:      3.121089017       0.044788317       0.508308950
Nuclear contribution   :     -2.877219567      -0.474707340      -1.174246853
                        -----------------------------------------
Total Dipole Moment    :      0.243869450      -0.429919023      -0.665937903
                        -----------------------------------------
Magnitude (a.u.)       :      0.829322594
Magnitude (Debye)      :      2.107970511

Rotational constants in cm-1:             0.491472             0.168298             0.144368
Rotational constants in MHz :         14733.962870          5045.451876          4328.058312

                             ****ORCA TERMINATED NORMALLY****
TOTAL RUN TIME: 0 days 0 hours 0 minutes 13 seconds 664 msec
