                         Program Version 6.0.0  -   RELEASE  -
|  1> ! wb97x-v def2-tzvp def2/J RIJCOSX DEFGRID2 scfconv7 GCP(DFT/TZ) printgap
|  2> %output
|  3>     printlevel normal
|  4> end
|  5> * xyz 0 1
|  6> C -2.5670982826439044 0.6269949918305776 -0.0014616072902208699
|  7> C -1.3951024349190455 -0.3207669084550725 0.004437519610932181
|  8> O -0.18032243055266187 0.4951668689993417 -0.023983332547408028
|  9> C 0.9880621770557294 -0.1727856239998343 -0.03585703716205629
| 10> O 1.0585344707274569 -1.391219267679559 -0.005514816486322938
| 11> C 2.1563866396149045 0.7560427212328253 -0.11549217050871032
| 12> H -3.494063415849707 0.046876747005050005 0.025046862547747677
| 13> H -2.5473439157901434 1.2827937078754208 0.8736629485299953
| 14> H -2.5721655287226293 1.2413257209937107 -0.9063883864255885
| 15> H -1.3908288320510092 -0.9732572251007195 -0.8736845648241767
| 16> H -1.3726175452737295 -0.9394398483903152 0.9064487881144746
| 17> H 3.0746979180014495 0.22004457164813626 0.12205945387931161
| 18> H 2.022775647652866 1.606809880213302 0.5563512503608992
| 19> H 2.222153724425811 1.1459879500163097 -1.1371855273293183
| 20> *
| 21>
| 22>                          ****END OF INPUT****

CARTESIAN COORDINATES (ANGSTROEM)
---------------------------------
  C     -2.567098    0.626995   -0.001462
  C     -1.395102   -0.320767    0.004438
  O     -0.180322    0.495167   -0.023983
  C      0.988062   -0.172786   -0.035857
  O      1.058534   -1.391219   -0.005515
  C      2.156387    0.756043   -0.115492
  H     -3.494063    0.046877    0.025047
  H     -2.547344    1.282794    0.873663
  H     -2.572166    1.241326   -0.906388
  H     -1.390829   -0.973257   -0.873685
  H     -1.372618   -0.939440    0.906449
  H      3.074698    0.220045    0.122059
  H      2.022776    1.606810    0.556351
  H      2.222154    1.145988   -1.137186

 Total Charge           Charge          ....    0
 Multiplicity           Mult            ....    1
 Number of Electrons    NEL             ....   48
 Basis Dimension        Dim             ....  234

ORBITAL ENERGIES
----------------

  NO   OCC          E(Eh)            E(eV)
   0   2.0000     -21.715273      -590.9026
   1   2.0000     -21.652681      -589.1994
   2   2.0000     -12.176747      -331.3461
   3   2.0000     -12.107312      -329.4567
   4   2.0000     -12.056879      -328.0844
   5   2.0000     -12.048058      -327.8443
   6   2.0000      -1.754121       -47.7321
   7   2.0000      -1.687502       -45.9193
   8   2.0000      -1.320971       -35.9455
   9   2.0000      -1.253685       -34.1145
  10   2.0000      -1.167842       -31.7786
  11   2.0000      -1.107297       -30.1311
  12   2.0000      -1.057265       -28.7696
  13   2.0000      -0.995424       -27.0869
  14   2.0000      -0.993237       -27.0273
  15   2.0000      -0.933817       -25.4104
  16   2.0000      -0.904346       -24.6085
  17   2.0000      -0.864171       -23.5153
  18   2.0000      -0.863368       -23.4934
  19   2.0000      -0.841951       -22.9106
  20   2.0000      -0.838310       -22.8116
  21   2.0000      -0.836012       -22.7491
  22   2.0000      -0.820385       -22.3238
  23   2.0000      -0.783691       -21.3253
  24   0.0000      -0.301344        -8.2000
  25   0.0000      -0.185169        -5.0387
  26   0.0000      -0.100629        -2.7383
  27   0.0000      -0.014434        -0.3928
  28   0.0000      -0.006123        -0.1666

MULLIKEN ATOMIC CHARGES
-----------------------
   0 C :   -0.305445
   1 C :   -0.045656
   2 O :   -0.245521
   3 C :    0.316673
   4 O :   -0.361547
   5 C :   -0.330114
   6 H :    0.113106
   7 H :    0.114937
   8 H :    0.114479
   9 H :    0.113356
  10 H :    0.114082
  11 H :    0.138924
  12 H :    0.131792
  13 H :    0.130934
Sum of atomic charges:   -0.0000000

LOEWDIN ATOMIC CHARGES
----------------------
   0 C :   -0.304930
   1 C :   -0.283696
   2 O :    0.235848
   3 C :   -0.493412
   4 O :    0.076042
   5 C :   -0.255051
   6 H :    0.124917
   7 H :    0.121017
   8 H :    0.120862
   9 H :    0.126425
  10 H :    0.126539
  11 H :    0.133601
  12 H :    0.132844
  13 H :    0.138997

  Mayer bond orders larger than 0.100000
B(  0-C ,  1-C ) :   0.9971 B(  0-C ,  6-H ) :   0.9743 B(  0-C ,  7-H ) :   0.9739
B(  0-C ,  8-H ) :   0.9739 B(  1-C ,  2-O ) :   0.8902 B(  1-C ,  9-H ) :   0.9746
B(  1-C , 10-H ) :   0.9751 B(  2-O ,  3-C ) :   1.1889 B(  3-C ,  4-O ) :   2.0409
B(  3-C ,  5-C ) :   0.9784 B(  5-C , 11-H ) :   0.9825 B(  5-C , 12-H ) :   0.9640
B(  5-C , 13-H ) :   0.9493

FINAL SINGLE POINT ENERGY      -307.725265159641

DIPOLE MOMENT
-------------

Method             : SCF
Type of density    : Electron Density
Multiplicity       :   1
Irrep              :   0
Energy             :  -307.7347010499413500 Eh
Relativity type    :
Basis              : AO
                                X                 Y                 Z
Electronic contribution:      3.419347275      -2.631262609       0.135203267
Nuclear contribution   :     -3.805418500       3.392727579      -0.177155795
                        -----------------------------------------
Total Dipole Moment    :     -0.386071225       0.761464971      -0.041952528
                        -----------------------------------------
Magnitude (a.u.)       :      0.854774770
Magnitude (Debye)      :      2.172664800

Rotational constants in cm-1:             0.281038             0.069266             0.057377
Rotational constants in MHz :          8425.297168          2076.536374          1720.104726

                             ****ORCA TERMINATED NORMALLY****
TOTAL RUN TIME: 0 days 0 hours 1 minutes 17 seconds 666 msec
