                         Program Version 6.0.0  -   RELEASE  -
|  1> ! wb97x-v def2-tzvp def2/J RIJCOSX DEFGRID2 scfconv7 GCP(DFT/TZ) printgap
|  2> %output
|  3>     printlevel normal
|  4> end
|  5> %cpcm
|  6>     smd true
|  7>     smdsolvent "water"
|  8> end
|  9> * xyz 0 1
| 10> C -2.5670982826439044 0.6269949918305776 -0.0014616072902208699
| 11> C -1.3951024349190455 -0.3207669084550725 0.004437519610932181
| 12> O -0.18032243055266187 0.4951668689993417 -0.023983332547408028
| 13> C 0.9880621770557294 -0.1727856239998343 -0.03585703716205629
| 14> O 1.0585344707274569 -1.391219267679559 -0.005514816486322938
| 15> C 2.1563866396149045 0.7560427212328253 -0.11549217050871032
| 16> H -3.494063415849707 0.046876747005050005 0.025046862547747677
| 17> H -2.5473439157901434 1.2827937078754208 0.8736629485299953
| 18> H -2.5721655287226293 1.2413257209937107 -0.9063883864255885
| 19> H -1.3908288320510092 -0.9732572251007195 -0.8736845648241767
| 20> H -1.3726175452737295 -0.9394398483903152 0.9064487881144746
| 21> H 3.0746979180014495 0.22004457164813626 0.12205945387931161
| 22> H 2.022775647652866 1.606809880213302 0.5563512503608992
| 23> H 2.222153724425811 1.1459879500163097 -1.1371855273293183
| 24> *
| 25>
| 26>                          ****END OF INPUT****

CARTESIAN COORDINATES (ANGSTROEM)
---------------------------------
  C     -2.567098    0.626995   -0.001462
  C     -1.395102   -0.320767    0.004438
  O     -0.180322    0.495167   -0.023983
  C      0.988062   -0.172786   -0.035857
  O      1.058534   -1.391219   -0.005515
  C      2.156387    0.756043   -0.115492
  H     -3.494063    0.046877    0.025047
  H     -2.547344    1.282794    0.873663
  H     -2.572166    1.241326   -0.906388
  H     -1.390829   -0.973257   -0.873685
  H     -1.372618   -0.939440    0.906449
  H      3.074698    0.220045    0.122059
  H      2.022776    1.606810    0.556351
  H      2.222154    1.145988   -1.137186

 Total Charge           Charge          ....    0
 Multiplicity           Mult            ....    1
 Number of Electrons    NEL             ....   48
 Basis Dimension        Dim             ....  234

ORBITAL ENERGIES
----------------

  NO   OCC          E(Eh)            E(eV)
   0   2.0000     -21.720038      -591.0323
   1   2.0000     -21.667383      -589.5995
   2   2.0000     -12.187115      -331.6283
   3   2.0000     -12.098649      -329.2210
   4   2.0000     -12.046688      -327.8070
   5   2.0000     -12.033957      -327.4606
   6   2.0000      -1.762090       -47.9489
   7   2.0000      -1.700333       -46.2684
   8   2.0000      -1.317318       -35.8460
   9   2.0000      -1.246188       -33.9105
  10   2.0000      -1.162569       -31.6351
  11   2.0000      -1.114231       -30.3198
  12   2.0000      -1.067675       -29.0529
  13   2.0000      -0.998459       -27.1694
  14   2.0000      -0.992067       -26.9955
  15   2.0000      -0.939253       -25.5584
  16   2.0000      -0.916645       -24.9432
  17   2.0000      -0.865079       -23.5400
  18   2.0000      -0.857967       -23.3465
  19   2.0000      -0.835389       -22.7321
  20   2.0000      -0.831394       -22.6234
  21   2.0000      -0.827806       -22.5258
  22   2.0000      -0.807749       -21.9800
  23   2.0000      -0.772460       -21.0197
  24   0.0000      -0.305897        -8.3239
  25   0.0000      -0.179654        -4.8886
  26   0.0000      -0.103909        -2.8275
  27   0.0000      -0.010039        -0.2732
  28   0.0000       0.000717         0.0195

MULLIKEN ATOMIC CHARGES
-----------------------
   0 C :   -0.363906
   1 C :   -0.053709
   2 O :   -0.270369
   3 C :    0.405212
   4 O :   -0.483340
   5 C :   -0.372873
   6 H :    0.136356
   7 H :    0.130803
   8 H :    0.130710
   9 H :    0.132643
  10 H :    0.132891
  11 H :    0.149556
  12 H :    0.159615
  13 H :    0.166410
Sum of atomic charges:   -0.0000000

LOEWDIN ATOMIC CHARGES
----------------------
   0 C :   -0.307047
   1 C :   -0.281708
   2 O :    0.232334
   3 C :   -0.474170
   4 O :    0.010248
   5 C :   -0.250302
   6 H :    0.131964
   7 H :    0.123833
   8 H :    0.123786
   9 H :    0.130757
  10 H :    0.130667
  11 H :    0.137325
  12 H :    0.142137
  13 H :    0.150177

  Mayer bond orders larger than 0.100000
B(  0-C ,  1-C ) :   1.0082 B(  0-C ,  6-H ) :   0.9697 B(  0-C ,  7-H ) :   0.9715
B(  0-C ,  8-H ) :   0.9714 B(  1-C ,  2-O ) :   0.8655 B(  1-C ,  9-H ) :   0.9675
B(  1-C , 10-H ) :   0.9677 B(  2-O ,  3-C ) :   1.2066 B(  3-C ,  4-O ) :   1.9104
B(  3-C ,  5-C ) :   0.9910 B(  5-C , 11-H ) :   0.9721 B(  5-C , 12-H ) :   0.9574
B(  5-C , 13-H ) :   0.9393

FINAL SINGLE POINT ENERGY      -307.731906634960

DIPOLE MOMENT
-------------

Method             : SCF
Type of density    : Electron Density
Multiplicity       :   1
Irrep              :   0
Energy             :  -307.7413425252604497 Eh
Relativity type    :
Basis              : AO
                                X                 Y                 Z
Electronic contribution:      3.307667015      -2.342326202       0.113017554
Nuclear contribution   :     -3.805418500       3.392727579      -0.177155795
                        -----------------------------------------
Total Dipole Moment    :     -0.497751485       1.050401378      -0.064138241
                        -----------------------------------------
Magnitude (a.u.)       :      1.164136293
Magnitude (Debye)      :      2.958999301

Rotational constants in cm-1:             0.281038             0.069266             0.057377
Rotational constants in MHz :          8425.297168          2076.536374          1720.104726

                             ****ORCA TERMINATED NORMALLY****
TOTAL RUN TIME: 0 days 0 hours 1 minutes 21 seconds 44 msec
