                         Program Version 6.0.0  -   RELEASE  -
|  1> ! wb97x-v def2-tzvp def2/J RIJCOSX DEFGRID2 scfconv7 GCP(DFT/TZ) printgap
|  2> %output
|  3>     printlevel normal
|  4> end
|  5> * xyz 0 1
|  6> C -0.4100523021061936 -1.062923191790791 1.1771020064937133e-05
|  7> C 0.9609207382227641 -1.2093924331395935 1.5862517693000456e-05
|  8> C 1.776880423178509 -0.06791619892881358 -9.781064076426394e-06
|  9> C 1.2176180852270857 1.2146885698901164 -3.628099864650468e-05
| 10> C -0.15941489704357312 1.348113672053878 -5.4244118435503725e-05
| 11> C -0.9904470867434642 0.217907614594012 -4.585742080959228e-05
| 12> C -2.4313320826003175 0.4049318299076173 -8.01402120179238e-05
| 13> O -3.263817813181517 -0.5025388788408868 4.9387881329834945e-05
| 14> O 3.121421395802397 -0.27293264293276026 -1.568160133935838e-05
| 15> H -1.0511873535508998 -1.9386798750290006 3.0828638052451006e-05
| 16> H 1.42406215864506 -2.190453846469572 2.6422865338702382e-05
| 17> H 1.865425813149133 2.086258484876152 -5.130660435067563e-05
| 18> H -0.6062233384421056 2.3387003737162586 -5.074112569448088e-05
| 19> H -2.76456685336982 1.4617901221710905 1.75773256254012e-05
| 20> H 3.5842065818443025 0.5782067850348848 -2.212565989152013e-05
| 21> *
| 22>
| 23>                          ****END OF INPUT****

CARTESIAN COORDINATES (ANGSTROEM)
---------------------------------
  C     -0.410052   -1.062923    0.000012
  C      0.960921   -1.209392    0.000016
  C      1.776880   -0.067916   -0.000010
  C      1.217618    1.214689   -0.000036
  C     -0.159415    1.348114   -0.000054
  C     -0.990447    0.217908   -0.000046
  C     -2.431332    0.404932   -0.000080
  O     -3.263818   -0.502539    0.000049
  O      3.121421   -0.272933   -0.000016
  H     -1.051187   -1.938680    0.000031
  H      1.424062   -2.190454    0.000026
  H      1.865426    2.086258   -0.000051
  H     -0.606223    2.338700   -0.000051
  H     -2.764567    1.461790    0.000018
  H      3.584207    0.578207   -0.000022

 Total Charge           Charge          ....    0
 Multiplicity           Mult            ....    1
 Number of Electrons    NEL             ....   64
 Basis Dimension        Dim             ....  315

ORBITAL ENERGIES
----------------

  NO   OCC          E(Eh)            E(eV)
   0   2.0000     -21.726854      -591.2177
   1   2.0000     -21.662697      -589.4720
   2   2.0000     -12.141498      -330.3869
   3   2.0000     -12.135111      -330.2132
   4   2.0000     -12.082540      -328.7826
   5   2.0000     -12.074369      -328.5603
   6   2.0000     -12.072055      -328.4973
   7   2.0000     -12.064954      -328.3041
   8   2.0000     -12.064179      -328.2830
   9   2.0000      -1.745301       -47.4921
  10   2.0000      -1.698958       -46.2310
  11   2.0000      -1.408828       -38.3361
  12   2.0000      -1.316678       -35.8286
  13   2.0000      -1.302133       -35.4328
  14   2.0000      -1.208959       -32.8975
  15   2.0000      -1.149962       -31.2920
  16   2.0000      -1.127872       -30.6910
  17   2.0000      -1.078057       -29.3354
  18   2.0000      -1.031922       -28.0800
  19   2.0000      -1.018595       -27.7174
  20   2.0000      -0.988580       -26.9006
  21   2.0000      -0.972640       -26.4669
  22   2.0000      -0.949986       -25.8504
  23   2.0000      -0.921159       -25.0660
  24   2.0000      -0.909094       -24.7377
  25   2.0000      -0.898481       -24.4489
  26   2.0000      -0.893607       -24.3163
  27   2.0000      -0.828247       -22.5377
  28   2.0000      -0.797027       -21.6882
  29   2.0000      -0.789610       -21.4864
  30   2.0000      -0.666224       -18.1289
  31   2.0000      -0.664427       -18.0800
  32   0.0000      -0.353066        -9.6074
  33   0.0000      -0.255515        -6.9529
  34   0.0000      -0.222620        -6.0578
  35   0.0000      -0.154024        -4.1912
  36   0.0000      -0.088331        -2.4036

MULLIKEN ATOMIC CHARGES
-----------------------
   0 C :   -0.179491
   1 C :   -0.153291
   2 C :    0.248355
   3 C :   -0.190839
   4 C :   -0.184967
   5 C :    0.144984
   6 C :    0.085945
   7 O :   -0.319370
   8 O :   -0.373090
   9 H :    0.150588
  10 H :    0.134030
  11 H :    0.118205
  12 H :    0.130765
  13 H :    0.069442
  14 H :    0.318734
Sum of atomic charges:   -0.0000000

LOEWDIN ATOMIC CHARGES
----------------------
   0 C :   -0.061043
   1 C :   -0.111922
   2 C :   -0.248193
   3 C :   -0.144199
   4 C :   -0.085933
   5 C :   -0.178203
   6 C :   -0.246849
   7 O :    0.075298
   8 O :    0.092373
   9 H :    0.157623
  10 H :    0.151269
  11 H :    0.142284
  12 H :    0.149968
  13 H :    0.116518
  14 H :    0.191008

  Mayer bond orders larger than 0.100000
B(  0-C ,  1-C ) :   1.4745 B(  0-C ,  5-C ) :   1.3362 B(  0-C ,  9-H ) :   0.9573
B(  1-C ,  2-C ) :   1.3573 B(  1-C , 10-H ) :   0.9765 B(  2-C ,  3-C ) :   1.3606
B(  2-C ,  8-O ) :   1.1810 B(  3-C ,  4-C ) :   1.4487 B(  3-C , 11-H ) :   0.9546
B(  4-C ,  5-C ) :   1.3657 B(  4-C , 12-H ) :   0.9480 B(  5-C ,  6-C ) :   0.9228
B(  5-C ,  7-O ) :  -0.1349 B(  5-C , 13-H ) :  -0.1044 B(  6-C ,  7-O ) :   2.1118
B(  6-C , 13-H ) :   1.0219 B(  8-O , 14-H ) :   0.8843

FINAL SINGLE POINT ENERGY      -420.821693424168

DIPOLE MOMENT
-------------

Method             : SCF
Type of density    : Electron Density
Multiplicity       :   1
Irrep              :   0
Energy             :  -420.8292298465676708 Eh
Relativity type    :
Basis              : AO
                                X                 Y                 Z
Electronic contribution:     -0.808425370      -1.069585329      -0.000097743
Nuclear contribution   :      2.309027422       2.175220213       0.000042089
                        -----------------------------------------
Total Dipole Moment    :      1.500602052       1.105634884      -0.000055654
                        -----------------------------------------
Magnitude (a.u.)       :      1.863929993
Magnitude (Debye)      :      4.737733528

Rotational constants in cm-1:             0.169397             0.033319             0.027843
Rotational constants in MHz :          5078.402409           998.877765           834.699587

                             ****ORCA TERMINATED NORMALLY****
TOTAL RUN TIME: 0 days 0 hours 2 minutes 30 seconds 621 msec
