                         Program Version 6.0.0  -   RELEASE  -
|  1> ! wb97x-v def2-tzvp def2/J RIJCOSX DEFGRID2 scfconv7 GCP(DFT/TZ) printgap
|  2> %output
|  3>     printlevel normal
|  4> end
|  5> %cpcm
|  6>     smd true
|  7>     smdsolvent "water"
|  8> end
|  9> * xyz 0 1
| 10> C -0.4100523021061936 -1.062923191790791 1.1771020064937133e-05
| 11> C 0.9609207382227641 -1.2093924331395935 1.5862517693000456e-05
| 12> C 1.776880423178509 -0.06791619892881358 -9.781064076426394e-06
| 13> C 1.2176180852270857 1.2146885698901164 -3.628099864650468e-05
| 14> C -0.15941489704357312 1.348113672053878 -5.4244118435503725e-05
| 15> C -0.9904470867434642 0.217907614594012 -4.585742080959228e-05
| 16> C -2.4313320826003175 0.4049318299076173 -8.01402120179238e-05
| 17> O -3.263817813181517 -0.5025388788408868 4.9387881329834945e-05
| 18> O 3.121421395802397 -0.27293264293276026 -1.568160133935838e-05
| 19> H -1.0511873535508998 -1.9386798750290006 3.0828638052451006e-05
| 20> H 1.42406215864506 -2.190453846469572 2.6422865338702382e-05
| 21> H 1.865425813149133 2.086258484876152 -5.130660435067563e-05
| 22> H -0.6062233384421056 2.3387003737162586 -5.074112569448088e-05
| 23> H -2.76456685336982 1.4617901221710905 1.75773256254012e-05
| 24> H 3.5842065818443025 0.5782067850348848 -2.212565989152013e-05
| 25> *
| 26>
| 27>                          ****END OF INPUT****

CARTESIAN COORDINATES (ANGSTROEM)
---------------------------------
  C     -0.410052   -1.062923    0.000012
  C      0.960921   -1.209392    0.000016
  C      1.776880   -0.067916   -0.000010
  C      1.217618    1.214689   -0.000036
  C     -0.159415    1.348114   -0.000054
  C     -0.990447    0.217908   -0.000046
  C     -2.431332    0.404932   -0.000080
  O     -3.263818   -0.502539    0.000049
  O      3.121421   -0.272933   -0.000016
  H     -1.051187   -1.938680    0.000031
  H      1.424062   -2.190454    0.000026
  H      1.865426    2.086258   -0.000051
  H     -0.606223    2.338700   -0.000051
  H     -2.764567    1.461790    0.000018
  H      3.584207    0.578207   -0.000022

 Total Charge           Charge          ....    0
 Multiplicity           Mult            ....    1
 Number of Electrons    NEL             ....   64
 Basis Dimension        Dim             ....  315

ORBITAL ENERGIES
----------------

  NO   OCC          E(Eh)            E(eV)
   0   2.0000     -21.712533      -590.8281
   1   2.0000     -21.672794      -589.7467
   2   2.0000     -12.141276      -330.3809
   3   2.0000     -12.131630      -330.1184
   4   2.0000     -12.070216      -328.4473
   5   2.0000     -12.067862      -328.3832
   6   2.0000     -12.057417      -328.0990
   7   2.0000     -12.055930      -328.0585
   8   2.0000     -12.054954      -328.0320
   9   2.0000      -1.730766       -47.0965
  10   2.0000      -1.713216       -46.6190
  11   2.0000      -1.399869       -38.0924
  12   2.0000      -1.308694       -35.6114
  13   2.0000      -1.291409       -35.1410
  14   2.0000      -1.201541       -32.6956
  15   2.0000      -1.142080       -31.0776
  16   2.0000      -1.122953       -30.5571
  17   2.0000      -1.073536       -29.2124
  18   2.0000      -1.024355       -27.8741
  19   2.0000      -1.018166       -27.7057
  20   2.0000      -0.990703       -26.9584
  21   2.0000      -0.959850       -26.1189
  22   2.0000      -0.944077       -25.6896
  23   2.0000      -0.912421       -24.8282
  24   2.0000      -0.907471       -24.6936
  25   2.0000      -0.898364       -24.4457
  26   2.0000      -0.886744       -24.1295
  27   2.0000      -0.817009       -22.2320
  28   2.0000      -0.801970       -21.8227
  29   2.0000      -0.781875       -21.2759
  30   2.0000      -0.657918       -17.9029
  31   2.0000      -0.655750       -17.8439
  32   0.0000      -0.350231        -9.5303
  33   0.0000      -0.244683        -6.6582
  34   0.0000      -0.216475        -5.8906
  35   0.0000      -0.139512        -3.7963
  36   0.0000      -0.069753        -1.8981

MULLIKEN ATOMIC CHARGES
-----------------------
   0 C :   -0.211490
   1 C :   -0.215809
   2 C :    0.282300
   3 C :   -0.237009
   4 C :   -0.187762
   5 C :    0.120416
   6 C :    0.152223
   7 O :   -0.454797
   8 O :   -0.441868
   9 H :    0.162966
  10 H :    0.164543
  11 H :    0.177378
  12 H :    0.176732
  13 H :    0.127467
  14 H :    0.384710
Sum of atomic charges:    0.0000000

LOEWDIN ATOMIC CHARGES
----------------------
   0 C :   -0.073057
   1 C :   -0.120438
   2 C :   -0.246440
   3 C :   -0.129670
   4 C :   -0.076231
   5 C :   -0.189552
   6 C :   -0.227353
   7 O :   -0.008655
   8 O :    0.075730
   9 H :    0.159338
  10 H :    0.158419
  11 H :    0.160310
  12 H :    0.163982
  13 H :    0.135896
  14 H :    0.217721

  Mayer bond orders larger than 0.100000
B(  0-C ,  1-C ) :   1.5040 B(  0-C ,  5-C ) :   1.2699 B(  0-C ,  9-H ) :   0.9669
B(  1-C ,  2-C ) :   1.3306 B(  1-C , 10-H ) :   0.9786 B(  2-C ,  3-C ) :   1.3520
B(  2-C ,  8-O ) :   1.1488 B(  3-C ,  4-C ) :   1.4112 B(  3-C , 11-H ) :   0.9658
B(  4-C ,  5-C ) :   1.3345 B(  4-C , 12-H ) :   0.9566 B(  5-C ,  6-C ) :   0.9816
B(  5-C ,  7-O ) :  -0.1268 B(  6-C ,  7-O ) :   1.9757 B(  6-C , 13-H ) :   0.9999
B(  8-O , 14-H ) :   0.8419

FINAL SINGLE POINT ENERGY      -420.837677569997

DIPOLE MOMENT
-------------

Method             : SCF
Type of density    : Electron Density
Multiplicity       :   1
Irrep              :   0
Energy             :  -420.8452139923971913 Eh
Relativity type    :
Basis              : AO
                                X                 Y                 Z
Electronic contribution:     -0.167704495      -0.441587459      -0.000128471
Nuclear contribution   :      2.309027422       2.175220213       0.000042089
                        -----------------------------------------
Total Dipole Moment    :      2.141322927       1.733632754      -0.000086381
                        -----------------------------------------
Magnitude (a.u.)       :      2.755130925
Magnitude (Debye)      :      7.002986274

Rotational constants in cm-1:             0.169397             0.033319             0.027843
Rotational constants in MHz :          5078.402409           998.877765           834.699587

                             ****ORCA TERMINATED NORMALLY****
TOTAL RUN TIME: 0 days 0 hours 2 minutes 33 seconds 775 msec
