                         Program Version 6.0.0  -   RELEASE  -
|  1> ! wb97x-v def2-tzvp def2/J RIJCOSX DEFGRID2 scfconv7 GCP(DFT/TZ) printgap
|  2> %output
|  3>     printlevel normal
|  4> end
|  5> * xyz 0 1
|  6> C -2.200644294777315 0.30778927760853464 -0.29972848489499815
|  7> C -1.003925237940876 0.1697894358767494 0.6495074428004202
|  8> C 0.0025993969169103392 -0.8113594993437987 0.130056136756429
|  9> C 1.271423106891845 -0.5756700165086049 -0.2230074213332638
| 10> C 2.007559266231694 0.7250859015750366 -0.16946972302496585
| 11> H -1.8828076870263026 0.7022945477345877 -1.270465359657625
| 12> H -2.954454729470207 0.9853096913731282 0.11400190032935419
| 13> H -2.677385633667184 -0.663301456760271 -0.471665160298807
| 14> H -0.5503820607020393 1.151092053565634 0.8167261452081316
| 15> H -1.369606225626661 -0.17986860724474615 1.624594621655408
| 16> H -0.3719140837368575 -1.8295399017987515 0.012899177235841195
| 17> H 1.8528143104943948 -1.4187492701549473 -0.5970585419280584
| 18> H 2.884334618370136 0.6451672226112524 0.48467690175426414
| 19> H 1.391209404572594 1.5516853436619578 0.18914147075693613
| 20> H 2.3897439677682386 0.99082342194946 -1.1624649141661736
| 21> *
| 22>
| 23>                          ****END OF INPUT****

CARTESIAN COORDINATES (ANGSTROEM)
---------------------------------
  C     -2.200644    0.307789   -0.299728
  C     -1.003925    0.169789    0.649507
  C      0.002599   -0.811359    0.130056
  C      1.271423   -0.575670   -0.223007
  C      2.007559    0.725086   -0.169470
  H     -1.882808    0.702295   -1.270465
  H     -2.954455    0.985310    0.114002
  H     -2.677386   -0.663301   -0.471665
  H     -0.550382    1.151092    0.816726
  H     -1.369606   -0.179869    1.624595
  H     -0.371914   -1.829540    0.012899
  H      1.852814   -1.418749   -0.597059
  H      2.884335    0.645167    0.484677
  H      1.391209    1.551685    0.189141
  H      2.389744    0.990823   -1.162465

 Total Charge           Charge          ....    0
 Multiplicity           Mult            ....    1
 Number of Electrons    NEL             ....   40
 Basis Dimension        Dim             ....  215

ORBITAL ENERGIES
----------------

  NO   OCC          E(Eh)            E(eV)
   0   2.0000     -12.043813      -327.7288
   1   2.0000     -12.042779      -327.7007
   2   2.0000     -12.038938      -327.5961
   3   2.0000     -12.038234      -327.5770
   4   2.0000     -12.034807      -327.4838
   5   2.0000      -1.318790       -35.8861
   6   2.0000      -1.256183       -34.1825
   7   2.0000      -1.182920       -32.1889
   8   2.0000      -1.104293       -30.0493
   9   2.0000      -0.989168       -26.9166
  10   2.0000      -0.918168       -24.9846
  11   2.0000      -0.885322       -24.0908
  12   2.0000      -0.855574       -23.2813
  13   2.0000      -0.830350       -22.5950
  14   2.0000      -0.822252       -22.3746
  15   2.0000      -0.811393       -22.0791
  16   2.0000      -0.799388       -21.7525
  17   2.0000      -0.769932       -20.9509
  18   2.0000      -0.759055       -20.6549
  19   2.0000      -0.637153       -17.3378
  20   0.0000      -0.192744        -5.2448
  21   0.0000      -0.031236        -0.8500
  22   0.0000      -0.004250        -0.1157
  23   0.0000       0.004321         0.1176
  24   0.0000       0.009847         0.2679

MULLIKEN ATOMIC CHARGES
-----------------------
   0 C :   -0.334753
   1 C :   -0.113141
   2 C :   -0.166145
   3 C :   -0.133525
   4 C :   -0.300824
   5 H :    0.109479
   6 H :    0.110525
   7 H :    0.104833
   8 H :    0.082013
   9 H :    0.095301
  10 H :    0.106573
  11 H :    0.106232
  12 H :    0.116553
  13 H :    0.100932
  14 H :    0.115947
Sum of atomic charges:    0.0000000

LOEWDIN ATOMIC CHARGES
----------------------
   0 C :   -0.300686
   1 C :   -0.275750
   2 C :   -0.186071
   3 C :   -0.205890
   4 C :   -0.291086
   5 H :    0.117267
   6 H :    0.114507
   7 H :    0.116140
   8 H :    0.131016
   9 H :    0.137250
  10 H :    0.139706
  11 H :    0.137432
  12 H :    0.124417
  13 H :    0.117622
  14 H :    0.124127

  Mayer bond orders larger than 0.100000
B(  0-C ,  1-C ) :   0.9700 B(  0-C ,  5-H ) :   0.9787 B(  0-C ,  6-H ) :   0.9795
B(  0-C ,  7-H ) :   0.9829 B(  1-C ,  2-C ) :   0.9600 B(  1-C ,  8-H ) :   0.9839
B(  1-C ,  9-H ) :   0.9722 B(  2-C ,  3-C ) :   1.9745 B(  2-C , 10-H ) :   0.9578
B(  3-C ,  4-C ) :   0.9566 B(  3-C , 11-H ) :   0.9638 B(  4-C , 12-H ) :   0.9713
B(  4-C , 13-H ) :   0.9897 B(  4-C , 14-H ) :   0.9715

FINAL SINGLE POINT ENERGY      -196.536603929696

DIPOLE MOMENT
-------------

Method             : SCF
Type of density    : Electron Density
Multiplicity       :   1
Irrep              :   0
Energy             :  -196.5462247099959825 Eh
Relativity type    :
Basis              : AO
                                X                 Y                 Z
Electronic contribution:      1.162335774      -1.751572910       0.369777127
Nuclear contribution   :     -1.158794572       1.850606269      -0.348913979
                        -----------------------------------------
Total Dipole Moment    :      0.003541202       0.099033360       0.020863148
                        -----------------------------------------
Magnitude (a.u.)       :      0.101269035
Magnitude (Debye)      :      0.257405430

Rotational constants in cm-1:             0.364901             0.086876             0.079406
Rotational constants in MHz :         10939.469386          2604.489170          2380.539966

                             ****ORCA TERMINATED NORMALLY****
TOTAL RUN TIME: 0 days 0 hours 1 minutes 6 seconds 562 msec
