                         Program Version 6.0.0  -   RELEASE  -
|  1> ! wb97x-v def2-tzvp def2/J RIJCOSX DEFGRID2 scfconv7 GCP(DFT/TZ) printgap
|  2> %output
|  3>     printlevel normal
|  4> end
|  5> %cpcm
|  6>     smd true
|  7>     smdsolvent "water"
|  8> end
|  9> * xyz 0 1
| 10> C -2.200644294777315 0.30778927760853464 -0.29972848489499815
| 11> C -1.003925237940876 0.1697894358767494 0.6495074428004202
| 12> C 0.0025993969169103392 -0.8113594993437987 0.130056136756429
| 13> C 1.271423106891845 -0.5756700165086049 -0.2230074213332638
| 14> C 2.007559266231694 0.7250859015750366 -0.16946972302496585
| 15> H -1.8828076870263026 0.7022945477345877 -1.270465359657625
| 16> H -2.954454729470207 0.9853096913731282 0.11400190032935419
| 17> H -2.677385633667184 -0.663301456760271 -0.471665160298807
| 18> H -0.5503820607020393 1.151092053565634 0.8167261452081316
| 19> H -1.369606225626661 -0.17986860724474615 1.624594621655408
| 20> H -0.3719140837368575 -1.8295399017987515 0.012899177235841195
| 21> H 1.8528143104943948 -1.4187492701549473 -0.5970585419280584
| 22> H 2.884334618370136 0.6451672226112524 0.48467690175426414
| 23> H 1.391209404572594 1.5516853436619578 0.18914147075693613
| 24> H 2.3897439677682386 0.99082342194946 -1.1624649141661736
| 25> *
| 26>
| 27>                          ****END OF INPUT****

CARTESIAN COORDINATES (ANGSTROEM)
---------------------------------
  C     -2.200644    0.307789   -0.299728
  C     -1.003925    0.169789    0.649507
  C      0.002599   -0.811359    0.130056
  C      1.271423   -0.575670   -0.223007
  C      2.007559    0.725086   -0.169470
  H     -1.882808    0.702295   -1.270465
  H     -2.954455    0.985310    0.114002
  H     -2.677386   -0.663301   -0.471665
  H     -0.550382    1.151092    0.816726
  H     -1.369606   -0.179869    1.624595
  H     -0.371914   -1.829540    0.012899
  H      1.852814   -1.418749   -0.597059
  H      2.884335    0.645167    0.484677
  H      1.391209    1.551685    0.189141
  H      2.389744    0.990823   -1.162465

 Total Charge           Charge          ....    0
 Multiplicity           Mult            ....    1
 Number of Electrons    NEL             ....   40
 Basis Dimension        Dim             ....  215

ORBITAL ENERGIES
----------------

  NO   OCC          E(Eh)            E(eV)
   0   2.0000     -12.040126      -327.6285
   1   2.0000     -12.036872      -327.5399
   2   2.0000     -12.035435      -327.5008
   3   2.0000     -12.030537      -327.3676
   4   2.0000     -12.027750      -327.2917
   5   2.0000      -1.315484       -35.7961
   6   2.0000      -1.250417       -34.0256
   7   2.0000      -1.177600       -32.0441
   8   2.0000      -1.098651       -29.8958
   9   2.0000      -0.983920       -26.7738
  10   2.0000      -0.913594       -24.8602
  11   2.0000      -0.880134       -23.9497
  12   2.0000      -0.849119       -23.1057
  13   2.0000      -0.823937       -22.4205
  14   2.0000      -0.815420       -22.1887
  15   2.0000      -0.805263       -21.9123
  16   2.0000      -0.792424       -21.5630
  17   2.0000      -0.763671       -20.7805
  18   2.0000      -0.752588       -20.4790
  19   2.0000      -0.636146       -17.3104
  20   0.0000      -0.191297        -5.2055
  21   0.0000      -0.024741        -0.6732
  22   0.0000       0.006647         0.1809
  23   0.0000       0.010502         0.2858
  24   0.0000       0.016791         0.4569

MULLIKEN ATOMIC CHARGES
-----------------------
   0 C :   -0.385300
   1 C :   -0.124268
   2 C :   -0.231723
   3 C :   -0.181903
   4 C :   -0.345616
   5 H :    0.119907
   6 H :    0.128263
   7 H :    0.122654
   8 H :    0.107935
   9 H :    0.109438
  10 H :    0.142805
  11 H :    0.141286
  12 H :    0.134232
  13 H :    0.128040
  14 H :    0.134249
Sum of atomic charges:   -0.0000000

LOEWDIN ATOMIC CHARGES
----------------------
   0 C :   -0.307091
   1 C :   -0.277788
   2 C :   -0.199961
   3 C :   -0.218930
   4 C :   -0.296362
   5 H :    0.117983
   6 H :    0.118046
   7 H :    0.119070
   8 H :    0.136363
   9 H :    0.140675
  10 H :    0.145200
  11 H :    0.142933
  12 H :    0.128475
  13 H :    0.123004
  14 H :    0.128385

  Mayer bond orders larger than 0.100000
B(  0-C ,  1-C ) :   0.9627 B(  0-C ,  5-H ) :   0.9765 B(  0-C ,  6-H ) :   0.9768
B(  0-C ,  7-H ) :   0.9805 B(  1-C ,  2-C ) :   0.9566 B(  1-C ,  8-H ) :   0.9832
B(  1-C ,  9-H ) :   0.9662 B(  2-C ,  3-C ) :   1.9471 B(  2-C , 10-H ) :   0.9593
B(  3-C ,  4-C ) :   0.9560 B(  3-C , 11-H ) :   0.9649 B(  4-C , 12-H ) :   0.9662
B(  4-C , 13-H ) :   0.9869 B(  4-C , 14-H ) :   0.9664

FINAL SINGLE POINT ENERGY      -196.535246916934

DIPOLE MOMENT
-------------

Method             : SCF
Type of density    : Electron Density
Multiplicity       :   1
Irrep              :   0
Energy             :  -196.5448676972338262 Eh
Relativity type    :
Basis              : AO
                                X                 Y                 Z
Electronic contribution:      1.156414070      -1.698984559       0.390051754
Nuclear contribution   :     -1.158794572       1.850606269      -0.348913979
                        -----------------------------------------
Total Dipole Moment    :     -0.002380502       0.151621710       0.041137775
                        -----------------------------------------
Magnitude (a.u.)       :      0.157121374
Magnitude (Debye)      :      0.399370795

Rotational constants in cm-1:             0.364901             0.086876             0.079406
Rotational constants in MHz :         10939.469386          2604.489170          2380.539966

                             ****ORCA TERMINATED NORMALLY****
TOTAL RUN TIME: 0 days 0 hours 1 minutes 3 seconds 532 msec
