                         Program Version 6.0.0  -   RELEASE  -
|  1> ! r2scan-3c def2/J RI DEFGRID2 scfconv6 printgap
|  2> %output
|  3>     printlevel normal
|  4> end
|  5> * xyz 0 1
|  6> C -3.0511240783 0.077369174 0.3046052388
|  7> C -1.9977979467 -0.2541648376 -0.751197068
|  8> H -2.5148570546 -0.4153585637 -1.7031887214
|  9> C -1.2053400147 -1.5178050863 -0.4108671313
| 10> C -0.3075730078 -1.3235548333 0.8061390613
| 11> C 0.6655806747 -0.1444057741 0.6384929817
| 12> H 1.1521139986 0.055048943 1.600843553
| 13> C -0.1534071491 1.0753369919 0.284920738
| 14> O -0.1316011867 2.0901042258 0.9571314331
| 15> C -1.0304186407 0.9288201199 -0.9270220763
| 16> C 1.779155508 -0.3870352289 -0.4042117795
| 17> C 2.5974987014 0.8904802387 -0.59328876
| 18> C 2.7026421558 -1.5246976407 0.0264043215
| 19> H -3.6902826822 -0.7824808524 0.4890771302
| 20> H -2.5870015759 0.3760527769 1.2419684612
| 21> H -3.6746936545 0.9019027324 -0.0329810066
| 22> H -1.900052396 -2.335891446 -0.2134013356
| 23> H -0.5993081311 -1.8027565533 -1.2720083663
| 24> H -0.9249803363 -1.1326869438 1.6859382437
| 25> H 0.2560887654 -2.2353642871 1.0007036648
| 26> H -1.5835599038 1.8566943038 -1.0826435827
| 27> H -0.3954247489 0.7481698982 -1.7951530105
| 28> H 1.3246319987 -0.6538913455 -1.3617816453
| 29> H 1.9718351787 1.7153438668 -0.9293516318
| 30> H 3.3828049138 0.732804593 -1.3285624055
| 31> H 3.0597496565 1.1852917483 0.3466328591
| 32> H 3.5252033455 -1.6154169245 -0.6786540766
| 33> H 2.178611109 -2.4753433925 0.0541420951
| 34> H 3.1174985553 -1.3257645572 1.011906532
| 35> *
| 36>
| 37>                          ****END OF INPUT****

CARTESIAN COORDINATES (ANGSTROEM)
---------------------------------
  C     -3.051124    0.077369    0.304605
  C     -1.997798   -0.254165   -0.751197
  H     -2.514857   -0.415359   -1.703189
  C     -1.205340   -1.517805   -0.410867
  C     -0.307573   -1.323555    0.806139
  C      0.665581   -0.144406    0.638493
  H      1.152114    0.055049    1.600844
  C     -0.153407    1.075337    0.284921
  O     -0.131601    2.090104    0.957131
  C     -1.030419    0.928820   -0.927022
  C      1.779156   -0.387035   -0.404212
  C      2.597499    0.890480   -0.593289
  C      2.702642   -1.524698    0.026404
  H     -3.690283   -0.782481    0.489077
  H     -2.587002    0.376053    1.241968
  H     -3.674694    0.901903   -0.032981
  H     -1.900052   -2.335891   -0.213401
  H     -0.599308   -1.802757   -1.272008
  H     -0.924980   -1.132687    1.685938
  H      0.256089   -2.235364    1.000704
  H     -1.583560    1.856694   -1.082644
  H     -0.395425    0.748170   -1.795153
  H      1.324632   -0.653891   -1.361782
  H      1.971835    1.715344   -0.929352
  H      3.382805    0.732805   -1.328562
  H      3.059750    1.185292    0.346633
  H      3.525203   -1.615417   -0.678654
  H      2.178611   -2.475343    0.054142
  H      3.117499   -1.325765    1.011907

 Total Charge           Charge          ....    0
 Multiplicity           Mult            ....    1
 Number of Electrons    NEL             ....   86
 Basis Dimension        Dim             ....  304

ORBITAL ENERGIES
----------------

  NO   OCC          E(Eh)            E(eV)
   0   2.0000     -18.930570      -515.1270
   1   2.0000     -10.109421      -275.0913
   2   2.0000     -10.048078      -273.4221
   3   2.0000     -10.046547      -273.3805
   4   2.0000     -10.038614      -273.1646
   5   2.0000     -10.036403      -273.1044
   6   2.0000     -10.033794      -273.0334
   7   2.0000     -10.033700      -273.0309
   8   2.0000     -10.023704      -272.7589
   9   2.0000     -10.021587      -272.7013
  10   2.0000     -10.019462      -272.6434
  11   2.0000      -0.996235       -27.1089
  12   2.0000      -0.818787       -22.2803
  13   2.0000      -0.778104       -21.1733
  14   2.0000      -0.723301       -19.6820
  15   2.0000      -0.696760       -18.9598
  16   2.0000      -0.657301       -17.8861
  17   2.0000      -0.655024       -17.8241
  18   2.0000      -0.590827       -16.0772
  19   2.0000      -0.548143       -14.9157
  20   2.0000      -0.545849       -14.8533
  21   2.0000      -0.487104       -13.2548
  22   2.0000      -0.450579       -12.2609
  23   2.0000      -0.443162       -12.0590
  24   2.0000      -0.431566       -11.7435
  25   2.0000      -0.423174       -11.5151
  26   2.0000      -0.405675       -11.0390
  27   2.0000      -0.403826       -10.9887
  28   2.0000      -0.387359       -10.5406
  29   2.0000      -0.368660       -10.0318
  30   2.0000      -0.366878        -9.9833
  31   2.0000      -0.359527        -9.7832
  32   2.0000      -0.356806        -9.7092
  33   2.0000      -0.346094        -9.4177
  34   2.0000      -0.336652        -9.1608
  35   2.0000      -0.324879        -8.8404
  36   2.0000      -0.316741        -8.6190
  37   2.0000      -0.312718        -8.5095
  38   2.0000      -0.304940        -8.2978
  39   2.0000      -0.294027        -8.0009
  40   2.0000      -0.284555        -7.7431
  41   2.0000      -0.279969        -7.6183
  42   2.0000      -0.201279        -5.4771
  43   0.0000      -0.044276        -1.2048
  44   0.0000       0.063785         1.7357
  45   0.0000       0.089789         2.4433
  46   0.0000       0.095666         2.6032
  47   0.0000       0.103583         2.8186

MULLIKEN ATOMIC CHARGES
-----------------------
   0 C :   -0.518993
   1 C :    0.046472
   2 H :    0.156839
   3 C :   -0.384212
   4 C :   -0.399742
   5 C :    0.041930
   6 H :    0.190740
   7 C :    0.095694
   8 O :   -0.324860
   9 C :   -0.358714
  10 C :   -0.120916
  11 C :   -0.483657
  12 C :   -0.499927
  13 H :    0.150235
  14 H :    0.166671
  15 H :    0.153158
  16 H :    0.159290
  17 H :    0.164604
  18 H :    0.176115
  19 H :    0.155610
  20 H :    0.176282
  21 H :    0.169677
  22 H :    0.161068
  23 H :    0.154454
  24 H :    0.147631
  25 H :    0.165974
  26 H :    0.150386
  27 H :    0.146263
  28 H :    0.161930
Sum of atomic charges:    0.0000000

LOEWDIN ATOMIC CHARGES
----------------------
   0 C :   -0.406011
   1 C :   -0.217341
   2 H :    0.159645
   3 C :   -0.293055
   4 C :   -0.275536
   5 C :   -0.193437
   6 H :    0.184065
   7 C :    0.216551
   8 O :   -0.456944
   9 C :   -0.261370
  10 C :   -0.226235
  11 C :   -0.401365
  12 C :   -0.408643
  13 H :    0.155039
  14 H :    0.160616
  15 H :    0.158674
  16 H :    0.162019
  17 H :    0.158349
  18 H :    0.164775
  19 H :    0.162256
  20 H :    0.180087
  21 H :    0.177141
  22 H :    0.157315
  23 H :    0.162136
  24 H :    0.152976
  25 H :    0.161750
  26 H :    0.156412
  27 H :    0.151965
  28 H :    0.158165

  Mayer bond orders larger than 0.100000
B(  0-C ,  1-C ) :   0.9259 B(  0-C , 13-H ) :   0.9741 B(  0-C , 14-H ) :   0.9678
B(  0-C , 15-H ) :   0.9684 B(  1-C ,  2-H ) :   0.9366 B(  1-C ,  3-C ) :   0.9048
B(  1-C ,  9-C ) :   0.8673 B(  3-C ,  4-C ) :   0.8634 B(  3-C , 16-H ) :   0.9620
B(  3-C , 17-H ) :   0.9916 B(  4-C ,  5-C ) :   0.8346 B(  4-C , 18-H ) :   0.9893
B(  4-C , 19-H ) :   0.9502 B(  5-C ,  6-H ) :   0.9757 B(  5-C ,  7-C ) :   0.8445
B(  5-C , 10-C ) :   0.8639 B(  7-C ,  8-O ) :   2.0112 B(  7-C ,  9-C ) :   0.9007
B(  9-C , 20-H ) :   0.9644 B(  9-C , 21-H ) :   0.9458 B( 10-C , 11-C ) :   0.8970
B( 10-C , 12-C ) :   0.8883 B( 10-C , 22-H ) :   0.9522 B( 11-C , 23-H ) :   0.9568
B( 11-C , 24-H ) :   0.9720 B( 11-C , 25-H ) :   0.9845 B( 12-C , 26-H ) :   0.9720
B( 12-C , 27-H ) :   0.9713 B( 12-C , 28-H ) :   0.9918

Dispersion correction           -0.010714265
FINAL SINGLE POINT ENERGY      -467.006652146420

DIPOLE MOMENT
-------------

Method             : SCF
Type of density    : Electron Density
Multiplicity       :   1
Irrep              :   0
Energy             :  -467.0090326951717543 Eh
Relativity type    :
Basis              : AO
                                X                 Y                 Z
Electronic contribution:     -2.013786970       5.635870877       2.099915222
Nuclear contribution   :      1.966672800      -6.727209078      -2.768883006
                        -----------------------------------------
Total Dipole Moment    :     -0.047114169      -1.091338201      -0.668967784
                        -----------------------------------------
Magnitude (a.u.)       :      1.280920259
Magnitude (Debye)      :      3.255840553

Rotational constants in cm-1:             0.056892             0.028758             0.023161
Rotational constants in MHz :          1705.587271           862.139743           694.348545

                             ****ORCA TERMINATED NORMALLY****
TOTAL RUN TIME: 0 days 0 hours 0 minutes 49 seconds 573 msec
