                         Program Version 6.0.0  -   RELEASE  -
|  1> ! r2scan-3c def2/J RI DEFGRID2 scfconv6 printgap
|  2> %output
|  3>     printlevel normal
|  4> end
|  5> %cpcm
|  6>     smd true
|  7>     smdsolvent "water"
|  8> end
|  9> * xyz 0 1
| 10> C -3.0511240783 0.077369174 0.3046052388
| 11> C -1.9977979467 -0.2541648376 -0.751197068
| 12> H -2.5148570546 -0.4153585637 -1.7031887214
| 13> C -1.2053400147 -1.5178050863 -0.4108671313
| 14> C -0.3075730078 -1.3235548333 0.8061390613
| 15> C 0.6655806747 -0.1444057741 0.6384929817
| 16> H 1.1521139986 0.055048943 1.600843553
| 17> C -0.1534071491 1.0753369919 0.284920738
| 18> O -0.1316011867 2.0901042258 0.9571314331
| 19> C -1.0304186407 0.9288201199 -0.9270220763
| 20> C 1.779155508 -0.3870352289 -0.4042117795
| 21> C 2.5974987014 0.8904802387 -0.59328876
| 22> C 2.7026421558 -1.5246976407 0.0264043215
| 23> H -3.6902826822 -0.7824808524 0.4890771302
| 24> H -2.5870015759 0.3760527769 1.2419684612
| 25> H -3.6746936545 0.9019027324 -0.0329810066
| 26> H -1.900052396 -2.335891446 -0.2134013356
| 27> H -0.5993081311 -1.8027565533 -1.2720083663
| 28> H -0.9249803363 -1.1326869438 1.6859382437
| 29> H 0.2560887654 -2.2353642871 1.0007036648
| 30> H -1.5835599038 1.8566943038 -1.0826435827
| 31> H -0.3954247489 0.7481698982 -1.7951530105
| 32> H 1.3246319987 -0.6538913455 -1.3617816453
| 33> H 1.9718351787 1.7153438668 -0.9293516318
| 34> H 3.3828049138 0.732804593 -1.3285624055
| 35> H 3.0597496565 1.1852917483 0.3466328591
| 36> H 3.5252033455 -1.6154169245 -0.6786540766
| 37> H 2.178611109 -2.4753433925 0.0541420951
| 38> H 3.1174985553 -1.3257645572 1.011906532
| 39> *
| 40>
| 41>                          ****END OF INPUT****

CARTESIAN COORDINATES (ANGSTROEM)
---------------------------------
  C     -3.051124    0.077369    0.304605
  C     -1.997798   -0.254165   -0.751197
  H     -2.514857   -0.415359   -1.703189
  C     -1.205340   -1.517805   -0.410867
  C     -0.307573   -1.323555    0.806139
  C      0.665581   -0.144406    0.638493
  H      1.152114    0.055049    1.600844
  C     -0.153407    1.075337    0.284921
  O     -0.131601    2.090104    0.957131
  C     -1.030419    0.928820   -0.927022
  C      1.779156   -0.387035   -0.404212
  C      2.597499    0.890480   -0.593289
  C      2.702642   -1.524698    0.026404
  H     -3.690283   -0.782481    0.489077
  H     -2.587002    0.376053    1.241968
  H     -3.674694    0.901903   -0.032981
  H     -1.900052   -2.335891   -0.213401
  H     -0.599308   -1.802757   -1.272008
  H     -0.924980   -1.132687    1.685938
  H      0.256089   -2.235364    1.000704
  H     -1.583560    1.856694   -1.082644
  H     -0.395425    0.748170   -1.795153
  H      1.324632   -0.653891   -1.361782
  H      1.971835    1.715344   -0.929352
  H      3.382805    0.732805   -1.328562
  H      3.059750    1.185292    0.346633
  H      3.525203   -1.615417   -0.678654
  H      2.178611   -2.475343    0.054142
  H      3.117499   -1.325765    1.011907

 Total Charge           Charge          ....    0
 Multiplicity           Mult            ....    1
 Number of Electrons    NEL             ....   86
 Basis Dimension        Dim             ....  304

ORBITAL ENERGIES
----------------

  NO   OCC          E(Eh)            E(eV)
   0   2.0000     -18.944821      -515.5148
   1   2.0000     -10.118460      -275.3373
   2   2.0000     -10.035888      -273.0904
   3   2.0000     -10.034591      -273.0551
   4   2.0000     -10.032578      -273.0003
   5   2.0000     -10.026095      -272.8239
   6   2.0000     -10.023432      -272.7514
   7   2.0000     -10.017905      -272.6010
   8   2.0000     -10.009978      -272.3853
   9   2.0000     -10.009760      -272.3794
  10   2.0000     -10.009315      -272.3673
  11   2.0000      -1.012174       -27.5426
  12   2.0000      -0.809139       -22.0178
  13   2.0000      -0.766824       -20.8663
  14   2.0000      -0.711963       -19.3735
  15   2.0000      -0.689306       -18.7570
  16   2.0000      -0.646351       -17.5881
  17   2.0000      -0.644027       -17.5249
  18   2.0000      -0.580154       -15.7868
  19   2.0000      -0.539806       -14.6889
  20   2.0000      -0.536779       -14.6065
  21   2.0000      -0.476654       -12.9704
  22   2.0000      -0.447091       -12.1660
  23   2.0000      -0.436629       -11.8813
  24   2.0000      -0.424357       -11.5473
  25   2.0000      -0.416973       -11.3464
  26   2.0000      -0.397790       -10.8244
  27   2.0000      -0.393255       -10.7010
  28   2.0000      -0.386072       -10.5056
  29   2.0000      -0.361112        -9.8264
  30   2.0000      -0.358586        -9.7576
  31   2.0000      -0.351986        -9.5780
  32   2.0000      -0.346326        -9.4240
  33   2.0000      -0.340897        -9.2763
  34   2.0000      -0.326168        -8.8755
  35   2.0000      -0.318511        -8.6671
  36   2.0000      -0.306567        -8.3421
  37   2.0000      -0.300723        -8.1831
  38   2.0000      -0.294218        -8.0061
  39   2.0000      -0.283525        -7.7151
  40   2.0000      -0.276051        -7.5117
  41   2.0000      -0.268894        -7.3170
  42   2.0000      -0.213388        -5.8066
  43   0.0000      -0.050019        -1.3611
  44   0.0000       0.078641         2.1399
  45   0.0000       0.102322         2.7843
  46   0.0000       0.109447         2.9782
  47   0.0000       0.110685         3.0119

MULLIKEN ATOMIC CHARGES
-----------------------
   0 C :   -0.565902
   1 C :    0.062542
   2 H :    0.170407
   3 C :   -0.398353
   4 C :   -0.407399
   5 C :    0.021644
   6 H :    0.192384
   7 C :    0.125010
   8 O :   -0.434761
   9 C :   -0.370281
  10 C :   -0.071374
  11 C :   -0.550025
  12 C :   -0.549000
  13 H :    0.165041
  14 H :    0.170998
  15 H :    0.165552
  16 H :    0.170362
  17 H :    0.179333
  18 H :    0.184962
  19 H :    0.170897
  20 H :    0.179793
  21 H :    0.201633
  22 H :    0.185381
  23 H :    0.162512
  24 H :    0.164694
  25 H :    0.176353
  26 H :    0.163248
  27 H :    0.162536
  28 H :    0.171810
Sum of atomic charges:   -0.0000000

LOEWDIN ATOMIC CHARGES
----------------------
   0 C :   -0.414580
   1 C :   -0.211033
   2 H :    0.165853
   3 C :   -0.292861
   4 C :   -0.273919
   5 C :   -0.191877
   6 H :    0.184880
   7 C :    0.229396
   8 O :   -0.535508
   9 C :   -0.259065
  10 C :   -0.219393
  11 C :   -0.411213
  12 C :   -0.414943
  13 H :    0.159985
  14 H :    0.159948
  15 H :    0.160286
  16 H :    0.166228
  17 H :    0.164174
  18 H :    0.167567
  19 H :    0.168681
  20 H :    0.180576
  21 H :    0.191872
  22 H :    0.166753
  23 H :    0.161644
  24 H :    0.158554
  25 H :    0.161157
  26 H :    0.159756
  27 H :    0.157069
  28 H :    0.160014

  Mayer bond orders larger than 0.100000
B(  0-C ,  1-C ) :   0.9083 B(  0-C , 13-H ) :   0.9697 B(  0-C , 14-H ) :   0.9674
B(  0-C , 15-H ) :   0.9687 B(  1-C ,  2-H ) :   0.9332 B(  1-C ,  3-C ) :   0.9057
B(  1-C ,  9-C ) :   0.8653 B(  3-C ,  4-C ) :   0.8675 B(  3-C , 16-H ) :   0.9593
B(  3-C , 17-H ) :   0.9868 B(  4-C ,  5-C ) :   0.8378 B(  4-C , 18-H ) :   0.9855
B(  4-C , 19-H ) :   0.9453 B(  5-C ,  6-H ) :   0.9709 B(  5-C ,  7-C ) :   0.8711
B(  5-C , 10-C ) :   0.8713 B(  7-C ,  8-O ) :   1.9234 B(  7-C ,  9-C ) :   0.9272
B(  9-C , 20-H ) :   0.9609 B(  9-C , 21-H ) :   0.9304 B( 10-C , 11-C ) :   0.8640
B( 10-C , 12-C ) :   0.8760 B( 10-C , 22-H ) :   0.9468 B( 11-C , 23-H ) :   0.9574
B( 11-C , 24-H ) :   0.9673 B( 11-C , 25-H ) :   0.9875 B( 12-C , 26-H ) :   0.9696
B( 12-C , 27-H ) :   0.9677 B( 12-C , 28-H ) :   0.9899

Dispersion correction           -0.010714265
FINAL SINGLE POINT ENERGY      -467.013398496713

DIPOLE MOMENT
-------------

Method             : SCF
Type of density    : Electron Density
Multiplicity       :   1
Irrep              :   0
Energy             :  -467.0157790454646261 Eh
Relativity type    :
Basis              : AO
                                X                 Y                 Z
Electronic contribution:     -2.039249356       5.055868265       1.704843147
Nuclear contribution   :      1.966672800      -6.727209078      -2.768883006
                        -----------------------------------------
Total Dipole Moment    :     -0.072576556      -1.671340813      -1.064039859
                        -----------------------------------------
Magnitude (a.u.)       :      1.982631658
Magnitude (Debye)      :      5.039449184

Rotational constants in cm-1:             0.056892             0.028758             0.023161
Rotational constants in MHz :          1705.587271           862.139743           694.348545

                             ****ORCA TERMINATED NORMALLY****
TOTAL RUN TIME: 0 days 0 hours 0 minutes 54 seconds 823 msec
