                         Program Version 6.0.0  -   RELEASE  -
|  1> ! r2scan-3c def2/J RI DEFGRID2 scfconv6 printgap
|  2> %output
|  3>     printlevel normal
|  4> end
|  5> * xyz 0 1
|  6> C -2.5438685569 -0.9119637321 0.2871945736
|  7> C -1.116784726 -0.4707280849 0.6172924126
|  8> H -1.0132757155 -0.3976513089 1.7122684156
|  9> C -0.8208605477 0.9123760248 0.0215994097
| 10> H -1.0399768942 0.884477196 -1.0553339095
| 11> C 0.6591312675 1.2676885418 0.2073597357
| 12> H 0.862836271 1.3963832335 1.2833915199
| 13> C 1.5429346916 0.1342647576 -0.3149217122
| 14> H 1.3891570428 0.0223849435 -1.3986280411
| 15> C 1.1213608379 -1.1816029561 0.3563432437
| 16> H 1.295952775 -1.0923637192 1.451927331
| 17> O -0.2355811825 -1.4584351774 0.1231136859
| 18> O 1.8767000882 -2.2061260917 -0.1823477982
| 19> O 2.879091475 0.4570892602 -0.0267123375
| 20> O 0.8983231216 2.4745123503 -0.4733048131
| 21> O -1.6470199964 1.8403920398 0.6765361173
| 22> O -2.7292275846 -0.8897806044 -1.1078554609
| 23> H -3.2260233039 -0.2141206266 0.7862300081
| 24> H -2.6844491754 -1.9246564779 0.6822641187
| 25> H 1.4330336835 -3.0532880132 -0.0211759631
| 26> H 3.4452657725 -0.2826942438 -0.2923546274
| 27> H 1.8501669057 2.6538666967 -0.4545963369
| 28> H -1.4312459062 2.7234649651 0.3397328081
| 29> H -3.6259260389 -1.1920034905 -1.310141774
| 30> *
| 31>
| 32>                          ****END OF INPUT****

CARTESIAN COORDINATES (ANGSTROEM)
---------------------------------
  C     -2.543869   -0.911964    0.287195
  C     -1.116785   -0.470728    0.617292
  H     -1.013276   -0.397651    1.712268
  C     -0.820861    0.912376    0.021599
  H     -1.039977    0.884477   -1.055334
  C      0.659131    1.267689    0.207360
  H      0.862836    1.396383    1.283392
  C      1.542935    0.134265   -0.314922
  H      1.389157    0.022385   -1.398628
  C      1.121361   -1.181603    0.356343
  H      1.295953   -1.092364    1.451927
  O     -0.235581   -1.458435    0.123114
  O      1.876700   -2.206126   -0.182348
  O      2.879091    0.457089   -0.026712
  O      0.898323    2.474512   -0.473305
  O     -1.647020    1.840392    0.676536
  O     -2.729228   -0.889781   -1.107855
  H     -3.226023   -0.214121    0.786230
  H     -2.684449   -1.924656    0.682264
  H      1.433034   -3.053288   -0.021176
  H      3.445266   -0.282694   -0.292355
  H      1.850167    2.653867   -0.454596
  H     -1.431246    2.723465    0.339733
  H     -3.625926   -1.192003   -1.310142

 Total Charge           Charge          ....    0
 Multiplicity           Mult            ....    1
 Number of Electrons    NEL             ....   96
 Basis Dimension        Dim             ....  318

ORBITAL ENERGIES
----------------

  NO   OCC          E(Eh)            E(eV)
   0   2.0000     -18.971479      -516.2402
   1   2.0000     -18.970741      -516.2201
   2   2.0000     -18.963762      -516.0302
   3   2.0000     -18.957661      -515.8642
   4   2.0000     -18.953509      -515.7512
   5   2.0000     -18.953151      -515.7415
   6   2.0000     -10.139239      -275.9027
   7   2.0000     -10.095000      -274.6989
   8   2.0000     -10.087004      -274.4813
   9   2.0000     -10.086870      -274.4777
  10   2.0000     -10.083953      -274.3983
  11   2.0000     -10.081555      -274.3331
  12   2.0000      -1.054729       -28.7006
  13   2.0000      -1.011837       -27.5335
  14   2.0000      -1.003460       -27.3055
  15   2.0000      -0.991610       -26.9831
  16   2.0000      -0.982674       -26.7399
  17   2.0000      -0.981278       -26.7019
  18   2.0000      -0.750453       -20.4209
  19   2.0000      -0.739194       -20.1145
  20   2.0000      -0.657380       -17.8882
  21   2.0000      -0.615091       -16.7375
  22   2.0000      -0.586461       -15.9584
  23   2.0000      -0.553098       -15.0506
  24   2.0000      -0.536306       -14.5936
  25   2.0000      -0.500983       -13.6324
  26   2.0000      -0.499846       -13.6015
  27   2.0000      -0.480473       -13.0743
  28   2.0000      -0.468014       -12.7353
  29   2.0000      -0.457312       -12.4441
  30   2.0000      -0.430745       -11.7212
  31   2.0000      -0.427346       -11.6287
  32   2.0000      -0.409161       -11.1338
  33   2.0000      -0.396729       -10.7955
  34   2.0000      -0.379896       -10.3375
  35   2.0000      -0.373930       -10.1752
  36   2.0000      -0.349165        -9.5013
  37   2.0000      -0.342682        -9.3249
  38   2.0000      -0.327944        -8.9238
  39   2.0000      -0.320303        -8.7159
  40   2.0000      -0.306385        -8.3372
  41   2.0000      -0.291778        -7.9397
  42   2.0000      -0.272150        -7.4056
  43   2.0000      -0.263038        -7.1576
  44   2.0000      -0.248275        -6.7559
  45   2.0000      -0.244635        -6.6569
  46   2.0000      -0.236895        -6.4462
  47   2.0000      -0.224656        -6.1132
  48   0.0000       0.035633         0.9696
  49   0.0000       0.053201         1.4477
  50   0.0000       0.055323         1.5054
  51   0.0000       0.080193         2.1822
  52   0.0000       0.091344         2.4856

MULLIKEN ATOMIC CHARGES
-----------------------
   0 C :   -0.180848
   1 C :   -0.061184
   2 H :    0.168402
   3 C :   -0.039342
   4 H :    0.198135
   5 C :   -0.044478
   6 H :    0.168715
   7 C :    0.063409
   8 H :    0.170938
   9 C :   -0.059083
  10 H :    0.142969
  11 O :   -0.197474
  12 O :   -0.401404
  13 O :   -0.443838
  14 O :   -0.443667
  15 O :   -0.439739
  16 O :   -0.420665
  17 H :    0.143141
  18 H :    0.127582
  19 H :    0.311964
  20 H :    0.313744
  21 H :    0.314110
  22 H :    0.312683
  23 H :    0.295933
Sum of atomic charges:    0.0000000

LOEWDIN ATOMIC CHARGES
----------------------
   0 C :    0.045725
   1 C :    0.126796
   2 H :    0.188869
   3 C :    0.116301
   4 H :    0.199278
   5 C :    0.107999
   6 H :    0.184963
   7 C :    0.115797
   8 H :    0.189292
   9 C :    0.297470
  10 H :    0.177622
  11 O :   -0.668566
  12 O :   -0.505765
  13 O :   -0.573466
  14 O :   -0.575140
  15 O :   -0.575240
  16 O :   -0.605056
  17 H :    0.177224
  18 H :    0.167555
  19 H :    0.286989
  20 H :    0.283401
  21 H :    0.283373
  22 H :    0.283445
  23 H :    0.271135

  Mayer bond orders larger than 0.100000
B(  0-C ,  1-C ) :   1.0252 B(  0-C , 16-O ) :   1.0023 B(  0-C , 17-H ) :   0.9544
B(  0-C , 18-H ) :   0.9645 B(  1-C ,  2-H ) :   0.9390 B(  1-C ,  3-C ) :   0.8758
B(  1-C , 11-O ) :   0.7912 B(  3-C ,  4-H ) :   0.9924 B(  3-C ,  5-C ) :   0.8337
B(  3-C , 15-O ) :   0.8600 B(  5-C ,  6-H ) :   0.9841 B(  5-C ,  7-C ) :   0.8645
B(  5-C , 14-O ) :   0.9008 B(  7-C ,  8-H ) :   0.9655 B(  7-C ,  9-C ) :   0.7955
B(  7-C , 13-O ) :   0.9112 B(  9-C , 10-H ) :   1.0079 B(  9-C , 11-O ) :   0.9502
B(  9-C , 12-O ) :   1.0248 B( 12-O , 19-H ) :   0.8760 B( 13-O , 20-H ) :   0.8809
B( 14-O , 21-H ) :   0.8777 B( 15-O , 22-H ) :   0.8810 B( 16-O , 23-H ) :   0.8997

Dispersion correction           -0.007981127
FINAL SINGLE POINT ENERGY      -687.075784113407

DIPOLE MOMENT
-------------

Method             : SCF
Type of density    : Electron Density
Multiplicity       :   1
Irrep              :   0
Energy             :  -687.0871302783067449 Eh
Relativity type    :
Basis              : AO
                                X                 Y                 Z
Electronic contribution:      2.361807100      -0.142562762      -1.287748390
Nuclear contribution   :     -2.559352490      -0.443533003       1.602339782
                        -----------------------------------------
Total Dipole Moment    :     -0.197545389      -0.586095765       0.314591392
                        -----------------------------------------
Magnitude (a.u.)       :      0.693902133
Magnitude (Debye)      :      1.763759055

Rotational constants in cm-1:             0.039692             0.026934             0.017842
Rotational constants in MHz :          1189.932604           807.473844           534.891263

                             ****ORCA TERMINATED NORMALLY****
TOTAL RUN TIME: 0 days 0 hours 0 minutes 49 seconds 437 msec
