                         Program Version 6.0.0  -   RELEASE  -
|  1> ! wb97x-v def2-tzvp def2/J RIJCOSX DEFGRID2 scfconv7 GCP(DFT/TZ) printgap
|  2> %output
|  3>     printlevel normal
|  4> end
|  5> * xyz 0 1
|  6> C 0.25543131962584065 -0.535837528550344 0.0006473889570392679
|  7> C 1.3922494122222917 0.15200628839495842 -0.0009174121988708722
|  8> F 2.582928155947811 -0.3935507971202236 -0.001027258321482798
|  9> F 1.4318534725300192 1.4658358535372997 -0.002988814382958079
| 10> C -1.1010819797381188 0.11063783809007607 0.0002551962071240159
| 11> F -1.2952015996418 0.8883267940315631 1.0918410804559495
| 12> F -1.2816565093357228 0.9123589057345103 -1.0758892164096676
| 13> F -2.0598845543406967 -0.8285575446869017 -0.015789802801372068
| 14> F 0.27947614784989433 -1.8768683346930164 0.003814038269695735
| 15> *
| 16>
| 17>                          ****END OF INPUT****

CARTESIAN COORDINATES (ANGSTROEM)
---------------------------------
  C      0.255431   -0.535838    0.000647
  C      1.392249    0.152006   -0.000917
  F      2.582928   -0.393551   -0.001027
  F      1.431853    1.465836   -0.002989
  C     -1.101082    0.110638    0.000255
  F     -1.295202    0.888327    1.091841
  F     -1.281657    0.912359   -1.075889
  F     -2.059885   -0.828558   -0.015790
  F      0.279476   -1.876868    0.003814

 Total Charge           Charge          ....    0
 Multiplicity           Mult            ....    1
 Number of Electrons    NEL             ....   72
 Basis Dimension        Dim             ....  279

ORBITAL ENERGIES
----------------

  NO   OCC          E(Eh)            E(eV)
   0   2.0000     -27.648732      -752.3602
   1   2.0000     -27.648155      -752.3445
   2   2.0000     -27.622159      -751.6372
   3   2.0000     -27.619960      -751.5773
   4   2.0000     -27.616604      -751.4860
   5   2.0000     -27.616398      -751.4804
   6   2.0000     -12.335366      -335.6624
   7   2.0000     -12.267179      -333.8069
   8   2.0000     -12.183944      -331.5420
   9   2.0000      -2.096710       -57.0544
  10   2.0000      -2.081644       -56.6444
  11   2.0000      -2.064738       -56.1844
  12   2.0000      -2.041396       -55.5492
  13   2.0000      -2.034407       -55.3590
  14   2.0000      -2.028724       -55.2044
  15   2.0000      -1.452300       -39.5191
  16   2.0000      -1.403809       -38.1996
  17   2.0000      -1.340953       -36.4892
  18   2.0000      -1.303570       -35.4720
  19   2.0000      -1.281130       -34.8613
  20   2.0000      -1.274332       -34.6763
  21   2.0000      -1.253288       -34.1037
  22   2.0000      -1.235984       -33.6328
  23   2.0000      -1.221864       -33.2486
  24   2.0000      -1.200543       -32.6684
  25   2.0000      -1.197323       -32.5808
  26   2.0000      -1.191258       -32.4158
  27   2.0000      -1.183196       -32.1964
  28   2.0000      -1.182731       -32.1837
  29   2.0000      -1.178045       -32.0562
  30   2.0000      -1.169772       -31.8311
  31   2.0000      -1.168141       -31.7867
  32   2.0000      -1.164034       -31.6750
  33   2.0000      -1.163917       -31.6718
  34   2.0000      -1.052344       -28.6357
  35   2.0000      -0.779778       -21.2188
  36   0.0000      -0.361102        -9.8261
  37   0.0000      -0.360672        -9.8144
  38   0.0000      -0.306942        -8.3523
  39   0.0000      -0.294144        -8.0041
  40   0.0000      -0.221106        -6.0166

MULLIKEN ATOMIC CHARGES
-----------------------
   0 C :    0.046311
   1 C :    0.338689
   2 F :   -0.123113
   3 F :   -0.121865
   4 C :    0.451759
   5 F :   -0.149497
   6 F :   -0.149321
   7 F :   -0.137543
   8 F :   -0.155419
Sum of atomic charges:    0.0000000

LOEWDIN ATOMIC CHARGES
----------------------
   0 C :   -0.283115
   1 C :   -0.422479
   2 F :    0.263065
   3 F :    0.259201
   4 C :   -0.630350
   5 F :    0.191512
   6 F :    0.192038
   7 F :    0.215788
   8 F :    0.214339

  Mayer bond orders larger than 0.100000
B(  0-C ,  1-C ) :   1.7927 B(  0-C ,  4-C ) :   0.9879 B(  0-C ,  8-F ) :   1.0909
B(  1-C ,  2-F ) :   1.1857 B(  1-C ,  3-F ) :   1.1743 B(  4-C ,  5-F ) :   1.1645
B(  4-C ,  6-F ) :   1.1644 B(  4-C ,  7-F ) :   1.1864

FINAL SINGLE POINT ENERGY      -713.388942337969

DIPOLE MOMENT
-------------

Method             : SCF
Type of density    : Electron Density
Multiplicity       :   1
Irrep              :   0
Energy             :  -713.4135732678685144 Eh
Relativity type    :
Basis              : AO
                                X                 Y                 Z
Electronic contribution:      0.101917522       0.181890286      -0.001057848
Nuclear contribution   :      0.319497891      -0.158878919       0.000002296
                        -----------------------------------------
Total Dipole Moment    :      0.421415413       0.023011367      -0.001055552
                        -----------------------------------------
Magnitude (a.u.)       :      0.422044533
Magnitude (Debye)      :      1.072751950

Rotational constants in cm-1:             0.083027             0.042769             0.033191
Rotational constants in MHz :          2489.097478          1282.196021           995.034078

                             ****ORCA TERMINATED NORMALLY****
TOTAL RUN TIME: 0 days 0 hours 1 minutes 34 seconds 605 msec
