                         Program Version 6.0.0  -   RELEASE  -
|  1> ! wb97x-v def2-tzvp def2/J RIJCOSX DEFGRID2 scfconv7 GCP(DFT/TZ) printgap
|  2> %output
|  3>     printlevel normal
|  4> end
|  5> %cpcm
|  6>     smd true
|  7>     smdsolvent "water"
|  8> end
|  9> * xyz 0 1
| 10> C 0.25543131962584065 -0.535837528550344 0.0006473889570392679
| 11> C 1.3922494122222917 0.15200628839495842 -0.0009174121988708722
| 12> F 2.582928155947811 -0.3935507971202236 -0.001027258321482798
| 13> F 1.4318534725300192 1.4658358535372997 -0.002988814382958079
| 14> C -1.1010819797381188 0.11063783809007607 0.0002551962071240159
| 15> F -1.2952015996418 0.8883267940315631 1.0918410804559495
| 16> F -1.2816565093357228 0.9123589057345103 -1.0758892164096676
| 17> F -2.0598845543406967 -0.8285575446869017 -0.015789802801372068
| 18> F 0.27947614784989433 -1.8768683346930164 0.003814038269695735
| 19> *
| 20>
| 21>                          ****END OF INPUT****

CARTESIAN COORDINATES (ANGSTROEM)
---------------------------------
  C      0.255431   -0.535838    0.000647
  C      1.392249    0.152006   -0.000917
  F      2.582928   -0.393551   -0.001027
  F      1.431853    1.465836   -0.002989
  C     -1.101082    0.110638    0.000255
  F     -1.295202    0.888327    1.091841
  F     -1.281657    0.912359   -1.075889
  F     -2.059885   -0.828558   -0.015790
  F      0.279476   -1.876868    0.003814

 Total Charge           Charge          ....    0
 Multiplicity           Mult            ....    1
 Number of Electrons    NEL             ....   72
 Basis Dimension        Dim             ....  279

ORBITAL ENERGIES
----------------

  NO   OCC          E(Eh)            E(eV)
   0   2.0000     -27.636352      -752.0234
   1   2.0000     -27.636064      -752.0155
   2   2.0000     -27.619265      -751.5584
   3   2.0000     -27.613045      -751.3892
   4   2.0000     -27.612831      -751.3833
   5   2.0000     -27.611267      -751.3408
   6   2.0000     -12.330167      -335.5209
   7   2.0000     -12.255349      -333.4850
   8   2.0000     -12.171648      -331.2074
   9   2.0000      -2.084125       -56.7119
  10   2.0000      -2.078318       -56.5539
  11   2.0000      -2.052365       -55.8477
  12   2.0000      -2.033226       -55.3269
  13   2.0000      -2.030997       -55.2662
  14   2.0000      -2.025326       -55.1119
  15   2.0000      -1.442187       -39.2439
  16   2.0000      -1.396876       -38.0109
  17   2.0000      -1.331596       -36.2346
  18   2.0000      -1.291863       -35.1534
  19   2.0000      -1.277945       -34.7747
  20   2.0000      -1.271208       -34.5913
  21   2.0000      -1.243094       -33.8263
  22   2.0000      -1.230499       -33.4836
  23   2.0000      -1.209423       -32.9101
  24   2.0000      -1.188143       -32.3310
  25   2.0000      -1.185271       -32.2529
  26   2.0000      -1.182418       -32.1752
  27   2.0000      -1.180155       -32.1137
  28   2.0000      -1.178840       -32.0779
  29   2.0000      -1.169945       -31.8358
  30   2.0000      -1.166334       -31.7376
  31   2.0000      -1.165252       -31.7081
  32   2.0000      -1.160949       -31.5910
  33   2.0000      -1.155821       -31.4515
  34   2.0000      -1.044145       -28.4126
  35   2.0000      -0.765778       -20.8379
  36   0.0000      -0.350395        -9.5347
  37   0.0000      -0.347857        -9.4657
  38   0.0000      -0.299725        -8.1559
  39   0.0000      -0.283194        -7.7061
  40   0.0000      -0.212629        -5.7859

MULLIKEN ATOMIC CHARGES
-----------------------
   0 C :    0.068813
   1 C :    0.375031
   2 F :   -0.131839
   3 F :   -0.131593
   4 C :    0.459882
   5 F :   -0.158312
   6 F :   -0.158147
   7 F :   -0.149182
   8 F :   -0.174653
Sum of atomic charges:    0.0000000

LOEWDIN ATOMIC CHARGES
----------------------
   0 C :   -0.275503
   1 C :   -0.406002
   2 F :    0.261186
   3 F :    0.256129
   4 C :   -0.624235
   5 F :    0.186339
   6 F :    0.186886
   7 F :    0.209642
   8 F :    0.205557

  Mayer bond orders larger than 0.100000
B(  0-C ,  1-C ) :   1.7886 B(  0-C ,  4-C ) :   0.9936 B(  0-C ,  8-F ) :   1.0678
B(  1-C ,  2-F ) :   1.1771 B(  1-C ,  3-F ) :   1.1643 B(  4-C ,  5-F ) :   1.1591
B(  4-C ,  6-F ) :   1.1590 B(  4-C ,  7-F ) :   1.1742

FINAL SINGLE POINT ENERGY      -713.383028367866

DIPOLE MOMENT
-------------

Method             : SCF
Type of density    : Electron Density
Multiplicity       :   1
Irrep              :   0
Energy             :  -713.4076592977656901 Eh
Relativity type    :
Basis              : AO
                                X                 Y                 Z
Electronic contribution:      0.193520612       0.190071082      -0.001251111
Nuclear contribution   :      0.319497891      -0.158878919       0.000002296
                        -----------------------------------------
Total Dipole Moment    :      0.513018503       0.031192163      -0.001248814
                        -----------------------------------------
Magnitude (a.u.)       :      0.513967406
Magnitude (Debye)      :      1.306401325

Rotational constants in cm-1:             0.083027             0.042769             0.033191
Rotational constants in MHz :          2489.097478          1282.196021           995.034078

                             ****ORCA TERMINATED NORMALLY****
TOTAL RUN TIME: 0 days 0 hours 1 minutes 37 seconds 3 msec
