                         Program Version 6.0.0  -   RELEASE  -
|  1> ! pbe def2-sv(p) def2/J RI DEFGRID1 loosescf d4 GCP(DFT/SV(P)) printgap
|  2> %output
|  3>     printlevel normal
|  4> end
|  5> * xyz 0 1
|  6> C -2.4179508434 -0.6769254203 0.0084848829
|  7> C -0.984877303 -0.2630496773 0.3538162222
|  8> H -0.94099232 0.0382889148 1.4092431337
|  9> C -0.5080299912 0.9029907054 -0.5144545387
| 10> H -0.4780233122 0.5607547533 -1.5617101698
| 11> C 0.9182702267 1.3201116317 -0.0924000147
| 12> H 0.8362548752 2.0941601163 0.6786647195
| 13> C 1.6893456286 0.1373906327 0.5293432149
| 14> H 2.7511226052 0.2625934845 0.274769162
| 15> C 1.1960656281 -1.1721288216 -0.1061698474
| 16> H 1.7252234758 -2.0352924901 0.3276649359
| 17> O -0.1603470858 -1.4141095012 0.1582107909
| 18> O 1.4550488518 -1.0780741443 -1.4762172132
| 19> O 1.4935323822 0.1539405641 1.9178685504
| 20> O 1.6219929461 1.8980004443 -1.1604035097
| 21> O -1.4218407589 1.9611604496 -0.3797961815
| 22> O -2.9130939019 -1.6583887907 0.8814119363
| 23> H -2.4453815729 -1.0345166845 -1.0293804008
| 24> H -3.0677484181 0.1932340249 0.1078240307
| 25> H 1.2269367132 -1.9108067954 -1.9175543572
| 26> H 2.0803568008 -0.4842050442 2.3493402186
| 27> H 1.7822840188 1.2173624846 -1.8332304807
| 28> H -1.0975660274 2.7207269847 -0.8865136386
| 29> H -2.2904497418 -2.4001028234 0.8876799748
| 30> *
| 31>
| 32>                          ****END OF INPUT****

CARTESIAN COORDINATES (ANGSTROEM)
---------------------------------
  C     -2.417951   -0.676925    0.008485
  C     -0.984877   -0.263050    0.353816
  H     -0.940992    0.038289    1.409243
  C     -0.508030    0.902991   -0.514455
  H     -0.478023    0.560755   -1.561710
  C      0.918270    1.320112   -0.092400
  H      0.836255    2.094160    0.678665
  C      1.689346    0.137391    0.529343
  H      2.751123    0.262593    0.274769
  C      1.196066   -1.172129   -0.106170
  H      1.725223   -2.035292    0.327665
  O     -0.160347   -1.414110    0.158211
  O      1.455049   -1.078074   -1.476217
  O      1.493532    0.153941    1.917869
  O      1.621993    1.898000   -1.160404
  O     -1.421841    1.961160   -0.379796
  O     -2.913094   -1.658389    0.881412
  H     -2.445382   -1.034517   -1.029380
  H     -3.067748    0.193234    0.107824
  H      1.226937   -1.910807   -1.917554
  H      2.080357   -0.484205    2.349340
  H      1.782284    1.217362   -1.833230
  H     -1.097566    2.720727   -0.886514
  H     -2.290450   -2.400103    0.887680

 Total Charge           Charge          ....    0
 Multiplicity           Mult            ....    1
 Number of Electrons    NEL             ....   96
 Basis Dimension        Dim             ....  192

ORBITAL ENERGIES
----------------

  NO   OCC          E(Eh)            E(eV)
   0   2.0000     -18.782972      -511.1106
   1   2.0000     -18.774336      -510.8756
   2   2.0000     -18.766792      -510.6704
   3   2.0000     -18.750503      -510.2271
   4   2.0000     -18.748143      -510.1629
   5   2.0000     -18.733319      -509.7595
   6   2.0000      -9.997047      -272.0335
   7   2.0000      -9.950078      -270.7554
   8   2.0000      -9.939614      -270.4706
   9   2.0000      -9.937816      -270.4217
  10   2.0000      -9.934318      -270.3265
  11   2.0000      -9.918487      -269.8957
  12   2.0000      -0.991250       -26.9733
  13   2.0000      -0.944650       -25.7052
  14   2.0000      -0.935077       -25.4448
  15   2.0000      -0.929145       -25.2833
  16   2.0000      -0.917222       -24.9589
  17   2.0000      -0.906398       -24.6644
  18   2.0000      -0.702422       -19.1139
  19   2.0000      -0.693100       -18.8602
  20   2.0000      -0.615421       -16.7465
  21   2.0000      -0.590603       -16.0711
  22   2.0000      -0.563312       -15.3285
  23   2.0000      -0.529447       -14.4070
  24   2.0000      -0.504942       -13.7402
  25   2.0000      -0.486884       -13.2488
  26   2.0000      -0.475351       -12.9350
  27   2.0000      -0.459773       -12.5110
  28   2.0000      -0.446535       -12.1508
  29   2.0000      -0.430341       -11.7102
  30   2.0000      -0.420546       -11.4436
  31   2.0000      -0.396386       -10.7862
  32   2.0000      -0.383377       -10.4322
  33   2.0000      -0.366804        -9.9812
  34   2.0000      -0.359652        -9.7866
  35   2.0000      -0.352614        -9.5951
  36   2.0000      -0.342059        -9.3079
  37   2.0000      -0.310537        -8.4501
  38   2.0000      -0.304287        -8.2801
  39   2.0000      -0.296541        -8.0693
  40   2.0000      -0.282409        -7.6847
  41   2.0000      -0.265327        -7.2199
  42   2.0000      -0.260223        -7.0810
  43   2.0000      -0.241824        -6.5804
  44   2.0000      -0.232874        -6.3368
  45   2.0000      -0.223436        -6.0800
  46   2.0000      -0.209601        -5.7035
  47   2.0000      -0.201134        -5.4731
  48   0.0000       0.006205         0.1688
  49   0.0000       0.012508         0.3404
  50   0.0000       0.034800         0.9470
  51   0.0000       0.054470         1.4822
  52   0.0000       0.062978         1.7137

MULLIKEN ATOMIC CHARGES
-----------------------
   0 C :    0.097037
   1 C :    0.008633
   2 H :    0.077230
   3 C :    0.064189
   4 H :    0.034249
   5 C :    0.091627
   6 H :    0.075700
   7 C :    0.002228
   8 H :    0.074463
   9 C :    0.163081
  10 H :    0.051208
  11 O :   -0.326477
  12 O :   -0.399440
  13 O :   -0.403404
  14 O :   -0.432394
  15 O :   -0.413885
  16 O :   -0.435693
  17 H :    0.049371
  18 H :    0.100697
  19 H :    0.309497
  20 H :    0.305351
  21 H :    0.303812
  22 H :    0.307583
  23 H :    0.295337
Sum of atomic charges:   -0.0000000

LOEWDIN ATOMIC CHARGES
----------------------
   0 C :   -0.125326
   1 C :   -0.069204
   2 H :    0.117103
   3 C :   -0.077999
   4 H :    0.097220
   5 C :   -0.069584
   6 H :    0.125580
   7 C :   -0.088650
   8 H :    0.109618
   9 C :   -0.011219
  10 H :    0.090459
  11 O :   -0.152792
  12 O :   -0.314671
  13 O :   -0.304248
  14 O :   -0.317620
  15 O :   -0.315691
  16 O :   -0.337730
  17 H :    0.092342
  18 H :    0.123487
  19 H :    0.290358
  20 H :    0.290487
  21 H :    0.278215
  22 H :    0.290652
  23 H :    0.279214

  Mayer bond orders larger than 0.100000
B(  0-C ,  1-C ) :   1.0579 B(  0-C , 16-O ) :   1.0758 B(  0-C , 17-H ) :   0.9033
B(  0-C , 18-H ) :   0.9108 B(  1-C ,  2-H ) :   0.8610 B(  1-C ,  3-C ) :   1.0613
B(  1-C , 11-O ) :   0.9500 B(  3-C ,  4-H ) :   0.8386 B(  3-C ,  5-C ) :   1.0379
B(  3-C , 15-O ) :   1.0633 B(  5-C ,  6-H ) :   0.8508 B(  5-C ,  7-C ) :   0.9996
B(  5-C , 14-O ) :   1.0370 B(  7-C ,  8-H ) :   0.8846 B(  7-C ,  9-C ) :   1.0223
B(  7-C , 13-O ) :   1.0457 B(  9-C , 10-H ) :   0.8956 B(  9-C , 11-O ) :   1.0868
B(  9-C , 12-O ) :   1.1102 B( 12-O , 19-H ) :   0.8361 B( 13-O , 20-H ) :   0.8446
B( 14-O , 21-H ) :   0.8358 B( 15-O , 22-H ) :   0.8426 B( 16-O , 23-H ) :   0.8481

Dispersion correction           -0.024676576
FINAL SINGLE POINT ENERGY      -685.693692241429

DIPOLE MOMENT
-------------

Method             : SCF
Type of density    : Electron Density
Multiplicity       :   1
Irrep              :   0
Energy             :  -685.8243664849552488 Eh
Relativity type    :
Basis              : AO
                                X                 Y                 Z
Electronic contribution:      1.227913038      -0.197616352       0.484446850
Nuclear contribution   :      0.078061408      -0.731748165      -1.120300232
                        -----------------------------------------
Total Dipole Moment    :      1.305974446      -0.929364517      -0.635853382
                        -----------------------------------------
Magnitude (a.u.)       :      1.724412127
Magnitude (Debye)      :      4.383107296

Rotational constants in cm-1:             0.040936             0.025748             0.021456
Rotational constants in MHz :          1227.231339           771.891233           643.228689

                             ****ORCA TERMINATED NORMALLY****
TOTAL RUN TIME: 0 days 0 hours 0 minutes 12 seconds 483 msec
