                         Program Version 6.0.0  -   RELEASE  -
|  1> ! wb97x-v def2-tzvp def2/J RIJCOSX DEFGRID2 scfconv7 GCP(DFT/TZ) printgap
|  2> %output
|  3>     printlevel normal
|  4> end
|  5> * xyz 0 1
|  6> C -3.9994394247798812 -0.47959691624748374 -0.00123156691597104
|  7> C -2.546423273157694 -0.10191179915473832 5.912862191759625e-06
|  8> C -2.1783327636448946 1.2692735420544186 0.00020002942731631065
|  9> C -0.8603018456999263 1.6556223462279274 0.00038465785988638584
| 10> C 0.1788033724553016 0.691705930930101 0.00035109487576103594
| 11> C 1.5484761257626072 1.0533605100620769 3.8978795200894206e-05
| 12> C 2.5464274679212964 0.10191289213031407 -0.00024198486914034305
| 13> C 2.178336732628976 -1.2692726800534238 0.0001130428823744212
| 14> C 0.8603059229831983 -1.6556200961775984 0.0004884864697980281
| 15> C -0.17879870909867476 -0.6917025959087479 0.00045510093766716695
| 16> C -1.5484709145031514 -1.0533584887574556 0.0003282753424545614
| 17> C 3.999444694126664 0.47959549852492395 -0.0011045390576607025
| 18> H -4.507503230341036 -0.07687092067469635 -0.8847933346928284
| 19> H -4.127777629685544 -1.5647270422179373 0.00403802402593724
| 20> H -4.511710606512852 -0.06749818314111386 0.8754825595916549
| 21> H -2.962694658567508 2.021845774758346 0.00015640687168802967
| 22> H -0.5961691192763697 2.7098384143740457 0.0005341615054432535
| 23> H 1.8062613457267425 2.1099981078514713 -0.00013827109827710914
| 24> H 2.962698663195098 -2.021844932797017 1.51992464797201e-05
| 25> H 0.5961700298352051 -2.7098353884058892 0.0007031754626179317
| 26> H -1.8062534515133066 -2.109996795878876 0.00034859889671070806
| 27> H 4.510224288528103 0.07208454848782792 0.8786489706900569
| 28> H 4.509008754571528 0.07226338263347859 -0.881656537582171
| 29> H 4.1277757231027685 1.5647390833980814 -0.0011173013573215367
| 30> *
| 31>
| 32>                          ****END OF INPUT****

CARTESIAN COORDINATES (ANGSTROEM)
---------------------------------
  C     -3.999439   -0.479597   -0.001232
  C     -2.546423   -0.101912    0.000006
  C     -2.178333    1.269274    0.000200
  C     -0.860302    1.655622    0.000385
  C      0.178803    0.691706    0.000351
  C      1.548476    1.053361    0.000039
  C      2.546427    0.101913   -0.000242
  C      2.178337   -1.269273    0.000113
  C      0.860306   -1.655620    0.000488
  C     -0.178799   -0.691703    0.000455
  C     -1.548471   -1.053358    0.000328
  C      3.999445    0.479595   -0.001105
  H     -4.507503   -0.076871   -0.884793
  H     -4.127778   -1.564727    0.004038
  H     -4.511711   -0.067498    0.875483
  H     -2.962695    2.021846    0.000156
  H     -0.596169    2.709838    0.000534
  H      1.806261    2.109998   -0.000138
  H      2.962699   -2.021845    0.000015
  H      0.596170   -2.709835    0.000703
  H     -1.806253   -2.109997    0.000349
  H      4.510224    0.072085    0.878649
  H      4.509009    0.072263   -0.881657
  H      4.127776    1.564739   -0.001117

 Total Charge           Charge          ....    0
 Multiplicity           Mult            ....    1
 Number of Electrons    NEL             ....   84
 Basis Dimension        Dim             ....  444

ORBITAL ENERGIES
----------------

  NO   OCC          E(Eh)            E(eV)
   0   2.0000     -12.058205      -328.1204
   1   2.0000     -12.058159      -328.1192
   2   2.0000     -12.056825      -328.0829
   3   2.0000     -12.055161      -328.0376
   4   2.0000     -12.050661      -327.9152
   5   2.0000     -12.050271      -327.9045
   6   2.0000     -12.047457      -327.8280
   7   2.0000     -12.047371      -327.8256
   8   2.0000     -12.045876      -327.7850
   9   2.0000     -12.045574      -327.7767
  10   2.0000     -12.043078      -327.7088
  11   2.0000     -12.043045      -327.7079
  12   2.0000      -1.399827       -38.0912
  13   2.0000      -1.354959       -36.8703
  14   2.0000      -1.300867       -35.3984
  15   2.0000      -1.293287       -35.1921
  16   2.0000      -1.249082       -33.9892
  17   2.0000      -1.216778       -33.1102
  18   2.0000      -1.172694       -31.9106
  19   2.0000      -1.128196       -30.6998
  20   2.0000      -1.088877       -29.6299
  21   2.0000      -1.084594       -29.5133
  22   2.0000      -0.989730       -26.9319
  23   2.0000      -0.972490       -26.4628
  24   2.0000      -0.970169       -26.3996
  25   2.0000      -0.906397       -24.6643
  26   2.0000      -0.900444       -24.5023
  27   2.0000      -0.895741       -24.3744
  28   2.0000      -0.872311       -23.7368
  29   2.0000      -0.857359       -23.3299
  30   2.0000      -0.839277       -22.8379
  31   2.0000      -0.836731       -22.7686
  32   2.0000      -0.835708       -22.7408
  33   2.0000      -0.828375       -22.5412
  34   2.0000      -0.814762       -22.1708
  35   2.0000      -0.808989       -22.0137
  36   2.0000      -0.785012       -21.3613
  37   2.0000      -0.784514       -21.3477
  38   2.0000      -0.713530       -19.4161
  39   2.0000      -0.674584       -18.3564
  40   2.0000      -0.620990       -16.8980
  41   2.0000      -0.594056       -16.1651
  42   0.0000      -0.278585        -7.5807
  43   0.0000      -0.255181        -6.9438
  44   0.0000      -0.193736        -5.2718
  45   0.0000      -0.132409        -3.6030
  46   0.0000      -0.057634        -1.5683

MULLIKEN ATOMIC CHARGES
-----------------------
   0 C :   -0.369084
   1 C :    0.193490
   2 C :   -0.192655
   3 C :   -0.191466
   4 C :    0.185745
   5 C :   -0.318531
   6 C :    0.193301
   7 C :   -0.193135
   8 C :   -0.190899
   9 C :    0.185638
  10 C :   -0.318426
  11 C :   -0.369172
  12 H :    0.122802
  13 H :    0.116653
  14 H :    0.122719
  15 H :    0.114002
  16 H :    0.109849
  17 H :    0.106505
  18 H :    0.114018
  19 H :    0.109829
  20 H :    0.106515
  21 H :    0.122774
  22 H :    0.122850
  23 H :    0.116678
Sum of atomic charges:    0.0000000

LOEWDIN ATOMIC CHARGES
----------------------
   0 C :   -0.252366
   1 C :   -0.171046
   2 C :   -0.114150
   3 C :   -0.099649
   4 C :   -0.092811
   5 C :   -0.082624
   6 C :   -0.171046
   7 C :   -0.114151
   8 C :   -0.099647
   9 C :   -0.092811
  10 C :   -0.082627
  11 C :   -0.252370
  12 H :    0.127035
  13 H :    0.124121
  14 H :    0.126974
  15 H :    0.144355
  16 H :    0.144635
  17 H :    0.145529
  18 H :    0.144356
  19 H :    0.144635
  20 H :    0.145528
  21 H :    0.126998
  22 H :    0.127012
  23 H :    0.124122

  Mayer bond orders larger than 0.100000
B(  0-C ,  1-C ) :   0.9081 B(  0-C , 12-H ) :   0.9748 B(  0-C , 13-H ) :   0.9986
B(  0-C , 14-H ) :   0.9753 B(  1-C ,  2-C ) :   1.2173 B(  1-C , 10-C ) :   1.5572
B(  2-C ,  3-C ) :   1.5811 B(  2-C , 15-H ) :   0.9834 B(  3-C ,  4-C ) :   1.1933
B(  3-C , 16-H ) :   0.9880 B(  4-C ,  5-C ) :   1.2209 B(  4-C ,  9-C ) :   1.2718
B(  5-C ,  6-C ) :   1.5568 B(  5-C , 17-H ) :   0.9647 B(  6-C ,  7-C ) :   1.2170
B(  6-C , 11-C ) :   0.9083 B(  7-C ,  8-C ) :   1.5803 B(  7-C , 18-H ) :   0.9836
B(  8-C ,  9-C ) :   1.1925 B(  8-C , 19-H ) :   0.9879 B(  9-C , 10-C ) :   1.2221
B( 10-C , 20-H ) :   0.9645 B( 11-C , 21-H ) :   0.9750 B( 11-C , 22-H ) :   0.9750
B( 11-C , 23-H ) :   0.9986

FINAL SINGLE POINT ENERGY      -464.541462572359

DIPOLE MOMENT
-------------

Method             : SCF
Type of density    : Electron Density
Multiplicity       :   1
Irrep              :   0
Energy             :  -464.5546656691587941 Eh
Relativity type    :
Basis              : AO
                                X                 Y                 Z
Electronic contribution:      0.000002060       0.000012721       0.005806940
Nuclear contribution   :      0.000002358      -0.000010469      -0.006548518
                        -----------------------------------------
Total Dipole Moment    :      0.000004418       0.000002252      -0.000741578
                        -----------------------------------------
Magnitude (a.u.)       :      0.000741594
Magnitude (Debye)      :      0.001884983

Rotational constants in cm-1:             0.089397             0.019275             0.015950
Rotational constants in MHz :          2680.064359           577.837611           478.159061

                             ****ORCA TERMINATED NORMALLY****
TOTAL RUN TIME: 0 days 0 hours 6 minutes 12 seconds 780 msec
