                         Program Version 6.0.0  -   RELEASE  -
|  1> ! wb97x-v def2-tzvp def2/J RIJCOSX DEFGRID2 scfconv7 GCP(DFT/TZ) printgap
|  2> %output
|  3>     printlevel normal
|  4> end
|  5> %cpcm
|  6>     smd true
|  7>     smdsolvent "water"
|  8> end
|  9> * xyz 0 1
| 10> C -3.9994394247798812 -0.47959691624748374 -0.00123156691597104
| 11> C -2.546423273157694 -0.10191179915473832 5.912862191759625e-06
| 12> C -2.1783327636448946 1.2692735420544186 0.00020002942731631065
| 13> C -0.8603018456999263 1.6556223462279274 0.00038465785988638584
| 14> C 0.1788033724553016 0.691705930930101 0.00035109487576103594
| 15> C 1.5484761257626072 1.0533605100620769 3.8978795200894206e-05
| 16> C 2.5464274679212964 0.10191289213031407 -0.00024198486914034305
| 17> C 2.178336732628976 -1.2692726800534238 0.0001130428823744212
| 18> C 0.8603059229831983 -1.6556200961775984 0.0004884864697980281
| 19> C -0.17879870909867476 -0.6917025959087479 0.00045510093766716695
| 20> C -1.5484709145031514 -1.0533584887574556 0.0003282753424545614
| 21> C 3.999444694126664 0.47959549852492395 -0.0011045390576607025
| 22> H -4.507503230341036 -0.07687092067469635 -0.8847933346928284
| 23> H -4.127777629685544 -1.5647270422179373 0.00403802402593724
| 24> H -4.511710606512852 -0.06749818314111386 0.8754825595916549
| 25> H -2.962694658567508 2.021845774758346 0.00015640687168802967
| 26> H -0.5961691192763697 2.7098384143740457 0.0005341615054432535
| 27> H 1.8062613457267425 2.1099981078514713 -0.00013827109827710914
| 28> H 2.962698663195098 -2.021844932797017 1.51992464797201e-05
| 29> H 0.5961700298352051 -2.7098353884058892 0.0007031754626179317
| 30> H -1.8062534515133066 -2.109996795878876 0.00034859889671070806
| 31> H 4.510224288528103 0.07208454848782792 0.8786489706900569
| 32> H 4.509008754571528 0.07226338263347859 -0.881656537582171
| 33> H 4.1277757231027685 1.5647390833980814 -0.0011173013573215367
| 34> *
| 35>
| 36>                          ****END OF INPUT****

CARTESIAN COORDINATES (ANGSTROEM)
---------------------------------
  C     -3.999439   -0.479597   -0.001232
  C     -2.546423   -0.101912    0.000006
  C     -2.178333    1.269274    0.000200
  C     -0.860302    1.655622    0.000385
  C      0.178803    0.691706    0.000351
  C      1.548476    1.053361    0.000039
  C      2.546427    0.101913   -0.000242
  C      2.178337   -1.269273    0.000113
  C      0.860306   -1.655620    0.000488
  C     -0.178799   -0.691703    0.000455
  C     -1.548471   -1.053358    0.000328
  C      3.999445    0.479595   -0.001105
  H     -4.507503   -0.076871   -0.884793
  H     -4.127778   -1.564727    0.004038
  H     -4.511711   -0.067498    0.875483
  H     -2.962695    2.021846    0.000156
  H     -0.596169    2.709838    0.000534
  H      1.806261    2.109998   -0.000138
  H      2.962699   -2.021845    0.000015
  H      0.596170   -2.709835    0.000703
  H     -1.806253   -2.109997    0.000349
  H      4.510224    0.072085    0.878649
  H      4.509009    0.072263   -0.881657
  H      4.127776    1.564739   -0.001117

 Total Charge           Charge          ....    0
 Multiplicity           Mult            ....    1
 Number of Electrons    NEL             ....   84
 Basis Dimension        Dim             ....  444

ORBITAL ENERGIES
----------------

  NO   OCC          E(Eh)            E(eV)
   0   2.0000     -12.058501      -328.1285
   1   2.0000     -12.057894      -328.1120
   2   2.0000     -12.057837      -328.1104
   3   2.0000     -12.056677      -328.0789
   4   2.0000     -12.049709      -327.8892
   5   2.0000     -12.049378      -327.8802
   6   2.0000     -12.046316      -327.7969
   7   2.0000     -12.046246      -327.7950
   8   2.0000     -12.044531      -327.7484
   9   2.0000     -12.044244      -327.7405
  10   2.0000     -12.033720      -327.4542
  11   2.0000     -12.033708      -327.4538
  12   2.0000      -1.401496       -38.1367
  13   2.0000      -1.354987       -36.8711
  14   2.0000      -1.301454       -35.4144
  15   2.0000      -1.292078       -35.1592
  16   2.0000      -1.249148       -33.9910
  17   2.0000      -1.212044       -32.9814
  18   2.0000      -1.167873       -31.7794
  19   2.0000      -1.127779       -30.6884
  20   2.0000      -1.086853       -29.5748
  21   2.0000      -1.083966       -29.4962
  22   2.0000      -0.988326       -26.8937
  23   2.0000      -0.971673       -26.4406
  24   2.0000      -0.969304       -26.3761
  25   2.0000      -0.903993       -24.5989
  26   2.0000      -0.897607       -24.4251
  27   2.0000      -0.892594       -24.2887
  28   2.0000      -0.869928       -23.6720
  29   2.0000      -0.853392       -23.2220
  30   2.0000      -0.833014       -22.6675
  31   2.0000      -0.831247       -22.6194
  32   2.0000      -0.829093       -22.5608
  33   2.0000      -0.823203       -22.4005
  34   2.0000      -0.808739       -22.0069
  35   2.0000      -0.801527       -21.8107
  36   2.0000      -0.785915       -21.3858
  37   2.0000      -0.782149       -21.2833
  38   2.0000      -0.714228       -19.4351
  39   2.0000      -0.676929       -18.4202
  40   2.0000      -0.623047       -16.9540
  41   2.0000      -0.595503       -16.2044
  42   0.0000      -0.279749        -7.6124
  43   0.0000      -0.257187        -6.9984
  44   0.0000      -0.195704        -5.3254
  45   0.0000      -0.132392        -3.6026
  46   0.0000      -0.052592        -1.4311

MULLIKEN ATOMIC CHARGES
-----------------------
   0 C :   -0.398096
   1 C :    0.171411
   2 C :   -0.228926
   3 C :   -0.234607
   4 C :    0.164731
   5 C :   -0.365542
   6 C :    0.171312
   7 C :   -0.229440
   8 C :   -0.234033
   9 C :    0.164564
  10 C :   -0.365356
  11 C :   -0.398190
  12 H :    0.140780
  13 H :    0.141603
  14 H :    0.140785
  15 H :    0.157098
  16 H :    0.156583
  17 H :    0.154173
  18 H :    0.157108
  19 H :    0.156558
  20 H :    0.154186
  21 H :    0.140800
  22 H :    0.140869
  23 H :    0.141629
Sum of atomic charges:    0.0000000

LOEWDIN ATOMIC CHARGES
----------------------
   0 C :   -0.253726
   1 C :   -0.178345
   2 C :   -0.120008
   3 C :   -0.108782
   4 C :   -0.108558
   5 C :   -0.090691
   6 C :   -0.178344
   7 C :   -0.120009
   8 C :   -0.108780
   9 C :   -0.108558
  10 C :   -0.090693
  11 C :   -0.253730
  12 H :    0.132064
  13 H :    0.129519
  14 H :    0.132013
  15 H :    0.154460
  16 H :    0.155336
  17 H :    0.156720
  18 H :    0.154461
  19 H :    0.155336
  20 H :    0.156720
  21 H :    0.132033
  22 H :    0.132045
  23 H :    0.129519

  Mayer bond orders larger than 0.100000
B(  0-C ,  1-C ) :   0.9242 B(  0-C , 12-H ) :   0.9685 B(  0-C , 13-H ) :   0.9935
B(  0-C , 14-H ) :   0.9690 B(  1-C ,  2-C ) :   1.1985 B(  1-C , 10-C ) :   1.5379
B(  2-C ,  3-C ) :   1.5635 B(  2-C , 15-H ) :   0.9900 B(  3-C ,  4-C ) :   1.1820
B(  3-C , 16-H ) :   0.9945 B(  4-C ,  5-C ) :   1.2064 B(  4-C ,  9-C ) :   1.2410
B(  5-C ,  6-C ) :   1.5375 B(  5-C , 17-H ) :   0.9805 B(  6-C ,  7-C ) :   1.1981
B(  6-C , 11-C ) :   0.9243 B(  7-C ,  8-C ) :   1.5626 B(  7-C , 18-H ) :   0.9901
B(  8-C ,  9-C ) :   1.1813 B(  8-C , 19-H ) :   0.9944 B(  9-C , 10-C ) :   1.2077
B( 10-C , 20-H ) :   0.9803 B( 11-C , 21-H ) :   0.9687 B( 11-C , 22-H ) :   0.9687
B( 11-C , 23-H ) :   0.9934

FINAL SINGLE POINT ENERGY      -464.544263321010

DIPOLE MOMENT
-------------

Method             : SCF
Type of density    : Electron Density
Multiplicity       :   1
Irrep              :   0
Energy             :  -464.5574664178101898 Eh
Relativity type    :
Basis              : AO
                                X                 Y                 Z
Electronic contribution:      0.000001244       0.000013941       0.005493347
Nuclear contribution   :      0.000002358      -0.000010469      -0.006548518
                        -----------------------------------------
Total Dipole Moment    :      0.000003602       0.000003472      -0.001055172
                        -----------------------------------------
Magnitude (a.u.)       :      0.001055183
Magnitude (Debye)      :      0.002682063

Rotational constants in cm-1:             0.089397             0.019275             0.015950
Rotational constants in MHz :          2680.064359           577.837611           478.159061

                             ****ORCA TERMINATED NORMALLY****
TOTAL RUN TIME: 0 days 0 hours 6 minutes 31 seconds 907 msec
