                         Program Version 6.0.0  -   RELEASE  -
|  1> ! pbe def2-sv(p) def2/J RI DEFGRID1 loosescf d4 GCP(DFT/SV(P)) printgap
|  2> %output
|  3>     printlevel normal
|  4> end
|  5> * xyz 0 1
|  6> C 2.8641349957 -0.000790389 1.2476863561
|  7> C 1.9740517465 1.2312915649 1.419694586
|  8> H 2.1147229546 1.6753156439 2.4048289013
|  9> C 0.4999141812 0.7805905713 1.3048735762
| 10> H -0.0322346393 1.1737220648 2.1715642059
| 11> C 0.4995656013 -0.7809681872 1.3049998165
| 12> H -0.032616236 -1.1737895069 2.1717343024
| 13> C 1.9734849263 -1.232450993 1.4194328402
| 14> H 2.1140497856 -1.6769037985 2.4044123202
| 15> Cl 2.4890821117 -2.5180886321 0.2802510093
| 16> C -0.3846731151 -1.1200115841 0.0681149766
| 17> C -1.780366044 -0.667503115 0.4900362024
| 18> C -1.7799998815 0.6685893829 0.4900023553
| 19> C -0.3838726939 1.1201064406 0.0678604401
| 20> C -0.0638539584 -0.0001709349 -0.9457768849
| 21> Cl 1.5442996221 -0.0006709612 -1.6280527412
| 22> Cl -1.2050935015 0.0002299568 -2.321211888
| 23> Cl -0.3874553145 2.7596996209 -0.561483182
| 24> Cl -3.0079129793 1.7429610359 0.9295851536
| 25> Cl -3.0088387162 -1.7409173977 0.9303547407
| 26> Cl -0.3897377929 -2.7597868337 -0.5607642759
| 27> Cl 2.4905584694 2.5171160691 0.2810851677
| 28> H 3.6687648202 -0.0010113458 1.9784346854
| 29> H 3.3176473168 -0.0007307463 0.2592330675
| 30> *
| 31>
| 32>                          ****END OF INPUT****

CARTESIAN COORDINATES (ANGSTROEM)
---------------------------------
  C      2.864135   -0.000790    1.247686
  C      1.974052    1.231292    1.419695
  H      2.114723    1.675316    2.404829
  C      0.499914    0.780591    1.304874
  H     -0.032235    1.173722    2.171564
  C      0.499566   -0.780968    1.305000
  H     -0.032616   -1.173790    2.171734
  C      1.973485   -1.232451    1.419433
  H      2.114050   -1.676904    2.404412
  Cl     2.489082   -2.518089    0.280251
  C     -0.384673   -1.120012    0.068115
  C     -1.780366   -0.667503    0.490036
  C     -1.780000    0.668589    0.490002
  C     -0.383873    1.120106    0.067860
  C     -0.063854   -0.000171   -0.945777
  Cl     1.544300   -0.000671   -1.628053
  Cl    -1.205094    0.000230   -2.321212
  Cl    -0.387455    2.759700   -0.561483
  Cl    -3.007913    1.742961    0.929585
  Cl    -3.008839   -1.740917    0.930355
  Cl    -0.389738   -2.759787   -0.560764
  Cl     2.490558    2.517116    0.281085
  H      3.668765   -0.001011    1.978435
  H      3.317647   -0.000731    0.259233

 Total Charge           Charge          ....    0
 Multiplicity           Mult            ....    1
 Number of Electrons    NEL             ....  202
 Basis Dimension        Dim             ....  296

ORBITAL ENERGIES
----------------

  NO   OCC          E(Eh)            E(eV)
   0   2.0000    -100.670982     -2739.3967
   1   2.0000    -100.670949     -2739.3958
   2   2.0000    -100.656358     -2738.9987
   3   2.0000    -100.646043     -2738.7181
   4   2.0000    -100.646038     -2738.7179
   5   2.0000    -100.645361     -2738.6995
   6   2.0000    -100.629019     -2738.2548
   7   2.0000    -100.629012     -2738.2546
   8   2.0000     -10.036168      -273.0980
   9   2.0000     -10.007242      -272.3109
  10   2.0000     -10.007224      -272.3104
  11   2.0000      -9.978271      -271.5226
  12   2.0000      -9.977652      -271.5057
  13   2.0000      -9.972569      -271.3674
  14   2.0000      -9.972547      -271.3668
  15   2.0000      -9.952534      -270.8222
  16   2.0000      -9.952477      -270.8207
  17   2.0000      -9.914395      -269.7844
  18   2.0000      -9.206668      -250.5262
  19   2.0000      -9.206629      -250.5251
  20   2.0000      -9.192657      -250.1449
  21   2.0000      -9.181783      -249.8490
  22   2.0000      -9.181777      -249.8489
  23   2.0000      -9.181213      -249.8335
  24   2.0000      -9.164849      -249.3882
  25   2.0000      -9.164843      -249.3881
  26   2.0000      -7.038145      -191.5177
  27   2.0000      -7.038132      -191.5173
  28   2.0000      -7.026822      -191.2095
  29   2.0000      -7.026809      -191.2092
  30   2.0000      -7.025701      -191.1790
  31   2.0000      -7.025683      -191.1785
  32   2.0000      -7.024403      -191.1437
  33   2.0000      -7.013750      -190.8539
  34   2.0000      -7.013748      -190.8538
  35   2.0000      -7.013301      -190.8416
  36   2.0000      -7.012096      -190.8088
  37   2.0000      -7.011900      -190.8035
  38   2.0000      -7.001434      -190.5187
  39   2.0000      -7.001431      -190.5186
  40   2.0000      -7.000810      -190.5017
  41   2.0000      -7.000807      -190.5017
  42   2.0000      -7.000620      -190.4966
  43   2.0000      -7.000408      -190.4908
  44   2.0000      -6.996657      -190.3887
  45   2.0000      -6.996656      -190.3887
  46   2.0000      -6.984335      -190.0534
  47   2.0000      -6.984333      -190.0534
  48   2.0000      -6.984227      -190.0505
  49   2.0000      -6.984226      -190.0504
  50   2.0000      -0.913011       -24.8443
  51   2.0000      -0.840767       -22.8784
  52   2.0000      -0.827669       -22.5220
  53   2.0000      -0.824687       -22.4409
  54   2.0000      -0.796165       -21.6648
  55   2.0000      -0.793095       -21.5812
  56   2.0000      -0.778005       -21.1706
  57   2.0000      -0.768160       -20.9027
  58   2.0000      -0.758156       -20.6305
  59   2.0000      -0.720844       -19.6152
  60   2.0000      -0.673515       -18.3273
  61   2.0000      -0.664751       -18.0888
  62   2.0000      -0.631407       -17.1815
  63   2.0000      -0.609614       -16.5884
  64   2.0000      -0.555202       -15.1078
  65   2.0000      -0.531451       -14.4615
  66   2.0000      -0.519578       -14.1384
  67   2.0000      -0.504789       -13.7360
  68   2.0000      -0.492338       -13.3972
  69   2.0000      -0.482157       -13.1202
  70   2.0000      -0.469968       -12.7885
  71   2.0000      -0.434907       -11.8344
  72   2.0000      -0.425150       -11.5689
  73   2.0000      -0.422944       -11.5089
  74   2.0000      -0.421178       -11.4608
  75   2.0000      -0.418479       -11.3874
  76   2.0000      -0.391781       -10.6609
  77   2.0000      -0.389829       -10.6078
  78   2.0000      -0.371032       -10.0963
  79   2.0000      -0.368577       -10.0295
  80   2.0000      -0.367333        -9.9956
  81   2.0000      -0.364800        -9.9267
  82   2.0000      -0.344544        -9.3755
  83   2.0000      -0.338376        -9.2077
  84   2.0000      -0.324968        -8.8428
  85   2.0000      -0.322291        -8.7700
  86   2.0000      -0.306893        -8.3510
  87   2.0000      -0.302627        -8.2349
  88   2.0000      -0.295750        -8.0478
  89   2.0000      -0.291724        -7.9382
  90   2.0000      -0.287467        -7.8224
  91   2.0000      -0.283024        -7.7015
  92   2.0000      -0.276410        -7.5215
  93   2.0000      -0.272650        -7.4192
  94   2.0000      -0.268900        -7.3171
  95   2.0000      -0.262570        -7.1449
  96   2.0000      -0.254615        -6.9284
  97   2.0000      -0.241674        -6.5763
  98   2.0000      -0.238564        -6.4916
  99   2.0000      -0.229791        -6.2529
 100   2.0000      -0.222114        -6.0440
 101   0.0000      -0.065390        -1.7793
 102   0.0000      -0.053106        -1.4451
 103   0.0000      -0.036573        -0.9952
 104   0.0000      -0.029272        -0.7965
 105   0.0000      -0.000383        -0.0104

MULLIKEN ATOMIC CHARGES
-----------------------
   0 C :   -0.045470
   1 C :   -0.092707
   2 H :    0.121337
   3 C :   -0.000436
   4 H :    0.090665
   5 C :   -0.000311
   6 H :    0.090630
   7 C :   -0.092712
   8 H :    0.121341
   9 Cl:   -0.090079
  10 C :   -0.108560
  11 C :    0.054920
  12 C :    0.054978
  13 C :   -0.108495
  14 C :   -0.132921
  15 Cl:    0.025997
  16 Cl:    0.008184
  17 Cl:   -0.014327
  18 Cl:   -0.002494
  19 Cl:   -0.002517
  20 Cl:   -0.014339
  21 Cl:   -0.090104
  22 H :    0.105895
  23 H :    0.121525
Sum of atomic charges:    0.0000000

LOEWDIN ATOMIC CHARGES
----------------------
   0 C :   -0.260773
   1 C :   -0.187951
   2 H :    0.131538
   3 C :   -0.131952
   4 H :    0.138843
   5 C :   -0.131938
   6 H :    0.138843
   7 C :   -0.187963
   8 H :    0.131541
   9 Cl:    0.065966
  10 C :   -0.169213
  11 C :   -0.207964
  12 C :   -0.207927
  13 C :   -0.169213
  14 C :   -0.229200
  15 Cl:    0.169912
  16 Cl:    0.113115
  17 Cl:    0.133579
  18 Cl:    0.203088
  19 Cl:    0.203068
  20 Cl:    0.133564
  21 Cl:    0.065943
  22 H :    0.132062
  23 H :    0.123034

  Mayer bond orders larger than 0.100000
B(  0-C ,  1-C ) :   1.0751 B(  0-C ,  7-C ) :   1.0751 B(  0-C , 22-H ) :   0.9036
B(  0-C , 23-H ) :   0.8930 B(  1-C ,  2-H ) :   0.8948 B(  1-C ,  3-C ) :   1.0048
B(  1-C , 21-Cl) :   1.0948 B(  3-C ,  4-H ) :   0.8490 B(  3-C ,  5-C ) :   1.0564
B(  3-C , 13-C ) :   0.9799 B(  5-C ,  6-H ) :   0.8490 B(  5-C ,  7-C ) :   1.0049
B(  5-C , 10-C ) :   0.9798 B(  7-C ,  8-H ) :   0.8948 B(  7-C ,  9-Cl) :   1.0948
B( 10-C , 11-C ) :   0.8920 B( 10-C , 14-C ) :   0.8176 B( 10-C , 20-Cl) :   1.1440
B( 11-C , 12-C ) :   1.7752 B( 11-C , 19-Cl) :   1.1467 B( 12-C , 13-C ) :   0.8919
B( 12-C , 18-Cl) :   1.1467 B( 13-C , 14-C ) :   0.8176 B( 13-C , 17-Cl) :   1.1441
B( 14-C , 15-Cl) :   1.1707 B( 14-C , 16-Cl) :   1.1415

Dispersion correction           -0.061237930
FINAL SINGLE POINT ENERGY     -4062.746468342053

DIPOLE MOMENT
-------------

Method             : SCF
Type of density    : Electron Density
Multiplicity       :   1
Irrep              :   0
Energy             : -4062.7781927520227327 Eh
Relativity type    :
Basis              : AO
                                X                 Y                 Z
Electronic contribution:    -12.355768469       0.003897043     -12.801160941
Nuclear contribution   :     12.440881952      -0.003916264      14.243204754
                        -----------------------------------------
Total Dipole Moment    :      0.085113483      -0.000019221       1.442043813
                        -----------------------------------------
Magnitude (a.u.)       :      1.444553448
Magnitude (Debye)      :      3.671763065

Rotational constants in cm-1:             0.009217             0.008169             0.005926
Rotational constants in MHz :           276.307669           244.904332           177.665956

                             ****ORCA TERMINATED NORMALLY****
TOTAL RUN TIME: 0 days 0 hours 0 minutes 21 seconds 831 msec
