                         Program Version 6.0.0  -   RELEASE  -
|  1> ! pbe def2-sv(p) def2/J RI DEFGRID1 loosescf d4 GCP(DFT/SV(P)) printgap
|  2> %output
|  3>     printlevel normal
|  4> end
|  5> * xyz 0 1
|  6> C -1.6475662403 -0.7833231726 0.9395898023
|  7> C -0.8893130367 -0.018918483 -0.109213226
|  8> O -1.4772654393 0.5206660195 -1.0276348831
|  9> C 0.628876244 0.0526081106 0.0189779564
| 10> C 0.992428793 0.7248162609 1.3492410537
| 11> C 1.196963134 0.8767944078 -1.1388486643
| 12> C 1.2047110927 -1.3684474986 -0.036579237
| 13> H -2.2196441318 -1.5668255697 0.4465070402
| 14> H -1.0094548403 -1.2167574805 1.6983974259
| 15> H -2.3660559637 -0.1095355524 1.4022806514
| 16> H 0.6580991189 0.139603202 2.2001379967
| 17> H 2.0719997341 0.8348042928 1.4120681595
| 18> H 0.5421293147 1.7132212949 1.4082934966
| 19> H 2.279287284 0.9350387304 -1.0657981953
| 20> H 0.7869646886 1.8841280936 -1.123235619
| 21> H 0.9308609917 0.4246215171 -2.0916682956
| 22> H 2.2900680945 -1.3172258212 -0.0070397188
| 23> H 0.9087014494 -1.8598218302 -0.9607799203
| 24> H 0.8675083218 -1.9715973777 0.8005656066
| 25> *
| 26>
| 27>                          ****END OF INPUT****

CARTESIAN COORDINATES (ANGSTROEM)
---------------------------------
  C     -1.647566   -0.783323    0.939590
  C     -0.889313   -0.018918   -0.109213
  O     -1.477265    0.520666   -1.027635
  C      0.628876    0.052608    0.018978
  C      0.992429    0.724816    1.349241
  C      1.196963    0.876794   -1.138849
  C      1.204711   -1.368447   -0.036579
  H     -2.219644   -1.566826    0.446507
  H     -1.009455   -1.216757    1.698397
  H     -2.366056   -0.109536    1.402281
  H      0.658099    0.139603    2.200138
  H      2.072000    0.834804    1.412068
  H      0.542129    1.713221    1.408293
  H      2.279287    0.935039   -1.065798
  H      0.786965    1.884128   -1.123236
  H      0.930861    0.424622   -2.091668
  H      2.290068   -1.317226   -0.007040
  H      0.908701   -1.859822   -0.960780
  H      0.867508   -1.971597    0.800566

 Total Charge           Charge          ....    0
 Multiplicity           Mult            ....    1
 Number of Electrons    NEL             ....   56
 Basis Dimension        Dim             ....  122

ORBITAL ENERGIES
----------------

  NO   OCC          E(Eh)            E(eV)
   0   2.0000     -18.734950      -509.8039
   1   2.0000      -9.969004      -271.2704
   2   2.0000      -9.913404      -269.7574
   3   2.0000      -9.885997      -269.0117
   4   2.0000      -9.885978      -269.0112
   5   2.0000      -9.885197      -268.9899
   6   2.0000      -9.870024      -268.5770
   7   2.0000      -0.932686       -25.3797
   8   2.0000      -0.746576       -20.3154
   9   2.0000      -0.666329       -18.1317
  10   2.0000      -0.625341       -17.0164
  11   2.0000      -0.611505       -16.6399
  12   2.0000      -0.543728       -14.7956
  13   2.0000      -0.446190       -12.1414
  14   2.0000      -0.427267       -11.6265
  15   2.0000      -0.411631       -11.2011
  16   2.0000      -0.407836       -11.0978
  17   2.0000      -0.385866       -10.4999
  18   2.0000      -0.367640       -10.0040
  19   2.0000      -0.359726        -9.7886
  20   2.0000      -0.350108        -9.5269
  21   2.0000      -0.340108        -9.2548
  22   2.0000      -0.326727        -8.8907
  23   2.0000      -0.310612        -8.4522
  24   2.0000      -0.309625        -8.4253
  25   2.0000      -0.292587        -7.9617
  26   2.0000      -0.290385        -7.9018
  27   2.0000      -0.192047        -5.2259
  28   0.0000      -0.049206        -1.3390
  29   0.0000       0.024984         0.6799
  30   0.0000       0.063535         1.7289
  31   0.0000       0.076044         2.0693
  32   0.0000       0.085066         2.3148

MULLIKEN ATOMIC CHARGES
-----------------------
   0 C :   -0.251693
   1 C :    0.045146
   2 O :   -0.167891
   3 C :   -0.289056
   4 C :   -0.222652
   5 C :   -0.191036
   6 C :   -0.222166
   7 H :    0.129798
   8 H :    0.114714
   9 H :    0.129815
  10 H :    0.100956
  11 H :    0.105849
  12 H :    0.109211
  13 H :    0.088711
  14 H :    0.101961
  15 H :    0.102439
  16 H :    0.105777
  17 H :    0.109374
  18 H :    0.100744
Sum of atomic charges:   -0.0000000

LOEWDIN ATOMIC CHARGES
----------------------
   0 C :   -0.362804
   1 C :    0.057952
   2 O :   -0.131239
   3 C :   -0.133139
   4 C :   -0.311453
   5 C :   -0.315361
   6 C :   -0.311223
   7 H :    0.148618
   8 H :    0.122493
   9 H :    0.148713
  10 H :    0.116876
  11 H :    0.123890
  12 H :    0.123318
  13 H :    0.114493
  14 H :    0.122301
  15 H :    0.122448
  16 H :    0.123858
  17 H :    0.123389
  18 H :    0.116870

  Mayer bond orders larger than 0.100000
B(  0-C ,  1-C ) :   1.0752 B(  0-C ,  7-H ) :   0.9220 B(  0-C ,  8-H ) :   0.9321
B(  0-C ,  9-H ) :   0.9217 B(  1-C ,  2-O ) :   2.1937 B(  1-C ,  3-C ) :   0.8998
B(  3-C ,  4-C ) :   1.0535 B(  3-C ,  5-C ) :   1.0960 B(  3-C ,  6-C ) :   1.0532
B(  4-C , 10-H ) :   0.9409 B(  4-C , 11-H ) :   0.9462 B(  4-C , 12-H ) :   0.9494
B(  5-C , 13-H ) :   0.9441 B(  5-C , 14-H ) :   0.9437 B(  5-C , 15-H ) :   0.9432
B(  6-C , 16-H ) :   0.9463 B(  6-C , 17-H ) :   0.9492 B(  6-C , 18-H ) :   0.9411

Dispersion correction           -0.016268268
FINAL SINGLE POINT ENERGY      -310.355182185233

DIPOLE MOMENT
-------------

Method             : SCF
Type of density    : Electron Density
Multiplicity       :   1
Irrep              :   0
Energy             :  -310.4184837874761342 Eh
Relativity type    :
Basis              : AO
                                X                 Y                 Z
Electronic contribution:     -4.905427356       1.532344461      -3.106322551
Nuclear contribution   :      5.363589170      -1.972129841       3.849741612
                        -----------------------------------------
Total Dipole Moment    :      0.458161814      -0.439785380       0.743419061
                        -----------------------------------------
Magnitude (a.u.)       :      0.977750136
Magnitude (Debye)      :      2.485243341

Rotational constants in cm-1:             0.107126             0.077655             0.064814
Rotational constants in MHz :          3211.565143          2328.024863          1943.062511

                             ****ORCA TERMINATED NORMALLY****
TOTAL RUN TIME: 0 days 0 hours 0 minutes 11 seconds 648 msec
