                         Program Version 6.0.0  -   RELEASE  -
|  1> ! wb97x-v def2-tzvp def2/J RIJCOSX DEFGRID2 scfconv7 GCP(DFT/TZ) printgap
|  2> %output
|  3>     printlevel normal
|  4> end
|  5> * xyz 0 1
|  6> C -3.0461659009595263 -1.4646689014392036 -0.000654332528461196
|  7> C -1.7459642400815878 -0.7155283053871264 -3.7843945885372134e-05
|  8> C -0.5450208319672852 -1.3916183939325484 0.00014755583159567357
|  9> C 0.698052571595856 -0.7144571935507382 0.00021518352082447022
| 10> C 1.9369870420168387 -1.4013201680733582 0.0002295510734630422
| 11> C 3.124583722417828 -0.7063182121269967 -4.744687402693207e-05
| 12> C 3.1245904659292862 0.7063141225224313 -0.00030622490602959815
| 13> C 1.93699983178412 1.4013257123959186 -0.0001873137545601972
| 14> C 0.698060511058833 0.7144731212388747 9.219421533783944e-05
| 15> C -0.5450036788205233 1.3916483630655336 0.00018441457198755182
| 16> C -1.7459548210117075 0.7155734619582191 0.0001272916362743952
| 17> C -3.0461423207558083 1.46473985376418 2.22554586526716e-05
| 18> H -3.6516964741479883 -1.2119135078504415 0.8775391238141601
| 19> H -3.6502402452561094 -1.2126581114797685 -0.8800882306870371
| 20> H -2.875048888865508 -2.5436524402675253 -8.945530516441627e-05
| 21> H -0.5412128008478623 -2.4792049000147944 0.00013218764245505723
| 22> H 1.9325270968059536 -2.488037013398688 0.0004124944923017077
| 23> H 4.068736350512066 -1.2422419766032904 -8.565896550791609e-05
| 24> H 4.068746347972558 1.2422318636343515 -0.0006140434362883529
| 25> H 1.9325471990349476 2.488042520882482 -0.00037091044360737025
| 26> H -0.5411849317509277 2.479234500127179 0.00024940463570392537
| 27> H -3.6517104252123382 1.2112531705835121 0.8779800788262458
| 28> H -2.8749970196311305 2.543718231611903 0.0015135894765740386
| 29> H -3.650190995069272 1.2134944867200945 -0.8796468979241439
| 30> *
| 31>
| 32>                          ****END OF INPUT****

CARTESIAN COORDINATES (ANGSTROEM)
---------------------------------
  C     -3.046166   -1.464669   -0.000654
  C     -1.745964   -0.715528   -0.000038
  C     -0.545021   -1.391618    0.000148
  C      0.698053   -0.714457    0.000215
  C      1.936987   -1.401320    0.000230
  C      3.124584   -0.706318   -0.000047
  C      3.124590    0.706314   -0.000306
  C      1.937000    1.401326   -0.000187
  C      0.698061    0.714473    0.000092
  C     -0.545004    1.391648    0.000184
  C     -1.745955    0.715573    0.000127
  C     -3.046142    1.464740    0.000022
  H     -3.651696   -1.211914    0.877539
  H     -3.650240   -1.212658   -0.880088
  H     -2.875049   -2.543652   -0.000089
  H     -0.541213   -2.479205    0.000132
  H      1.932527   -2.488037    0.000412
  H      4.068736   -1.242242   -0.000086
  H      4.068746    1.242232   -0.000614
  H      1.932547    2.488043   -0.000371
  H     -0.541185    2.479235    0.000249
  H     -3.651710    1.211253    0.877980
  H     -2.874997    2.543718    0.001514
  H     -3.650191    1.213494   -0.879647

 Total Charge           Charge          ....    0
 Multiplicity           Mult            ....    1
 Number of Electrons    NEL             ....   84
 Basis Dimension        Dim             ....  444

ORBITAL ENERGIES
----------------

  NO   OCC          E(Eh)            E(eV)
   0   2.0000     -12.059635      -328.1594
   1   2.0000     -12.057852      -328.1108
   2   2.0000     -12.056668      -328.0786
   3   2.0000     -12.054976      -328.0326
   4   2.0000     -12.050288      -327.9050
   5   2.0000     -12.049919      -327.8950
   6   2.0000     -12.048419      -327.8541
   7   2.0000     -12.047086      -327.8179
   8   2.0000     -12.046175      -327.7931
   9   2.0000     -12.046156      -327.7926
  10   2.0000     -12.044776      -327.7550
  11   2.0000     -12.044713      -327.7533
  12   2.0000      -1.400225       -38.1021
  13   2.0000      -1.355177       -36.8762
  14   2.0000      -1.302973       -35.4557
  15   2.0000      -1.286015       -34.9943
  16   2.0000      -1.261534       -34.3281
  17   2.0000      -1.199247       -32.6332
  18   2.0000      -1.191925       -32.4339
  19   2.0000      -1.111164       -30.2363
  20   2.0000      -1.100584       -29.9484
  21   2.0000      -1.084048       -29.4985
  22   2.0000      -0.985209       -26.8089
  23   2.0000      -0.982059       -26.7232
  24   2.0000      -0.964614       -26.2485
  25   2.0000      -0.911816       -24.8118
  26   2.0000      -0.896295       -24.3894
  27   2.0000      -0.895904       -24.3788
  28   2.0000      -0.872630       -23.7455
  29   2.0000      -0.858320       -23.3561
  30   2.0000      -0.851031       -23.1577
  31   2.0000      -0.839333       -22.8394
  32   2.0000      -0.828950       -22.5569
  33   2.0000      -0.825933       -22.4748
  34   2.0000      -0.813937       -22.1484
  35   2.0000      -0.811491       -22.0818
  36   2.0000      -0.786893       -21.4124
  37   2.0000      -0.786473       -21.4010
  38   2.0000      -0.713413       -19.4130
  39   2.0000      -0.674978       -18.3671
  40   2.0000      -0.620098       -16.8737
  41   2.0000      -0.594194       -16.1688
  42   0.0000      -0.279041        -7.5931
  43   0.0000      -0.255266        -6.9461
  44   0.0000      -0.193545        -5.2666
  45   0.0000      -0.131829        -3.5873
  46   0.0000      -0.062686        -1.7058

MULLIKEN ATOMIC CHARGES
-----------------------
   0 C :   -0.360730
   1 C :    0.108239
   2 C :   -0.291128
   3 C :    0.183799
   4 C :   -0.219430
   5 C :   -0.110459
   6 C :   -0.111558
   7 C :   -0.218659
   8 C :    0.183625
   9 C :   -0.291140
  10 C :    0.107967
  11 C :   -0.360856
  12 H :    0.120265
  13 H :    0.120296
  14 H :    0.119350
  15 H :    0.104239
  16 H :    0.110715
  17 H :    0.115302
  18 H :    0.115189
  19 H :    0.110750
  20 H :    0.104235
  21 H :    0.120273
  22 H :    0.119402
  23 H :    0.120312
Sum of atomic charges:    0.0000000

LOEWDIN ATOMIC CHARGES
----------------------
   0 C :   -0.247971
   1 C :   -0.140649
   2 C :   -0.080234
   3 C :   -0.093592
   4 C :   -0.102738
   5 C :   -0.144136
   6 C :   -0.144140
   7 C :   -0.102734
   8 C :   -0.093592
   9 C :   -0.080234
  10 C :   -0.140649
  11 C :   -0.247972
  12 H :    0.126562
  13 H :    0.126593
  14 H :    0.125074
  15 H :    0.146059
  16 H :    0.144052
  17 H :    0.140980
  18 H :    0.140981
  19 H :    0.144051
  20 H :    0.146060
  21 H :    0.126565
  22 H :    0.125075
  23 H :    0.126589

  Mayer bond orders larger than 0.100000
B(  0-C ,  1-C ) :   0.9189 B(  0-C , 12-H ) :   0.9786 B(  0-C , 13-H ) :   0.9785
B(  0-C , 14-H ) :   0.9923 B(  1-C ,  2-C ) :   1.5702 B(  1-C , 10-C ) :   1.1940
B(  2-C ,  3-C ) :   1.2077 B(  2-C , 15-H ) :   0.9666 B(  3-C ,  4-C ) :   1.2092
B(  3-C ,  8-C ) :   1.2700 B(  4-C ,  5-C ) :   1.5703 B(  4-C , 16-H ) :   0.9859
B(  5-C ,  6-C ) :   1.2697 B(  5-C , 17-H ) :   0.9766 B(  6-C ,  7-C ) :   1.5697
B(  6-C , 18-H ) :   0.9771 B(  7-C ,  8-C ) :   1.2093 B(  7-C , 19-H ) :   0.9856
B(  8-C ,  9-C ) :   1.2074 B(  9-C , 10-C ) :   1.5701 B(  9-C , 20-H ) :   0.9667
B( 10-C , 11-C ) :   0.9191 B( 11-C , 21-H ) :   0.9786 B( 11-C , 22-H ) :   0.9924
B( 11-C , 23-H ) :   0.9785

FINAL SINGLE POINT ENERGY      -464.541165865202

DIPOLE MOMENT
-------------

Method             : SCF
Type of density    : Electron Density
Multiplicity       :   1
Irrep              :   0
Energy             :  -464.5545582400019384 Eh
Relativity type    :
Basis              : AO
                                X                 Y                 Z
Electronic contribution:      8.546702657      -0.000086925       0.002146327
Nuclear contribution   :     -8.896644436       0.000089465      -0.002469901
                        -----------------------------------------
Total Dipole Moment    :     -0.349941778       0.000002540      -0.000323574
                        -----------------------------------------
Magnitude (a.u.)       :      0.349941928
Magnitude (Debye)      :      0.889481692

Rotational constants in cm-1:             0.072712             0.022339             0.017197
Rotational constants in MHz :          2179.841186           669.695200           515.558981

                             ****ORCA TERMINATED NORMALLY****
TOTAL RUN TIME: 0 days 0 hours 5 minutes 51 seconds 986 msec
