                         Program Version 6.0.0  -   RELEASE  -
|  1> ! wb97x-v def2-tzvp def2/J RIJCOSX DEFGRID2 scfconv7 GCP(DFT/TZ) printgap
|  2> %output
|  3>     printlevel normal
|  4> end
|  5> %cpcm
|  6>     smd true
|  7>     smdsolvent "water"
|  8> end
|  9> * xyz 0 1
| 10> C -3.0461659009595263 -1.4646689014392036 -0.000654332528461196
| 11> C -1.7459642400815878 -0.7155283053871264 -3.7843945885372134e-05
| 12> C -0.5450208319672852 -1.3916183939325484 0.00014755583159567357
| 13> C 0.698052571595856 -0.7144571935507382 0.00021518352082447022
| 14> C 1.9369870420168387 -1.4013201680733582 0.0002295510734630422
| 15> C 3.124583722417828 -0.7063182121269967 -4.744687402693207e-05
| 16> C 3.1245904659292862 0.7063141225224313 -0.00030622490602959815
| 17> C 1.93699983178412 1.4013257123959186 -0.0001873137545601972
| 18> C 0.698060511058833 0.7144731212388747 9.219421533783944e-05
| 19> C -0.5450036788205233 1.3916483630655336 0.00018441457198755182
| 20> C -1.7459548210117075 0.7155734619582191 0.0001272916362743952
| 21> C -3.0461423207558083 1.46473985376418 2.22554586526716e-05
| 22> H -3.6516964741479883 -1.2119135078504415 0.8775391238141601
| 23> H -3.6502402452561094 -1.2126581114797685 -0.8800882306870371
| 24> H -2.875048888865508 -2.5436524402675253 -8.945530516441627e-05
| 25> H -0.5412128008478623 -2.4792049000147944 0.00013218764245505723
| 26> H 1.9325270968059536 -2.488037013398688 0.0004124944923017077
| 27> H 4.068736350512066 -1.2422419766032904 -8.565896550791609e-05
| 28> H 4.068746347972558 1.2422318636343515 -0.0006140434362883529
| 29> H 1.9325471990349476 2.488042520882482 -0.00037091044360737025
| 30> H -0.5411849317509277 2.479234500127179 0.00024940463570392537
| 31> H -3.6517104252123382 1.2112531705835121 0.8779800788262458
| 32> H -2.8749970196311305 2.543718231611903 0.0015135894765740386
| 33> H -3.650190995069272 1.2134944867200945 -0.8796468979241439
| 34> *
| 35>
| 36>                          ****END OF INPUT****

CARTESIAN COORDINATES (ANGSTROEM)
---------------------------------
  C     -3.046166   -1.464669   -0.000654
  C     -1.745964   -0.715528   -0.000038
  C     -0.545021   -1.391618    0.000148
  C      0.698053   -0.714457    0.000215
  C      1.936987   -1.401320    0.000230
  C      3.124584   -0.706318   -0.000047
  C      3.124590    0.706314   -0.000306
  C      1.937000    1.401326   -0.000187
  C      0.698061    0.714473    0.000092
  C     -0.545004    1.391648    0.000184
  C     -1.745955    0.715573    0.000127
  C     -3.046142    1.464740    0.000022
  H     -3.651696   -1.211914    0.877539
  H     -3.650240   -1.212658   -0.880088
  H     -2.875049   -2.543652   -0.000089
  H     -0.541213   -2.479205    0.000132
  H      1.932527   -2.488037    0.000412
  H      4.068736   -1.242242   -0.000086
  H      4.068746    1.242232   -0.000614
  H      1.932547    2.488043   -0.000371
  H     -0.541185    2.479235    0.000249
  H     -3.651710    1.211253    0.877980
  H     -2.874997    2.543718    0.001514
  H     -3.650191    1.213494   -0.879647

 Total Charge           Charge          ....    0
 Multiplicity           Mult            ....    1
 Number of Electrons    NEL             ....   84
 Basis Dimension        Dim             ....  444

ORBITAL ENERGIES
----------------

  NO   OCC          E(Eh)            E(eV)
   0   2.0000     -12.058410      -328.1260
   1   2.0000     -12.058037      -328.1159
   2   2.0000     -12.056532      -328.0749
   3   2.0000     -12.056384      -328.0709
   4   2.0000     -12.049850      -327.8931
   5   2.0000     -12.049596      -327.8862
   6   2.0000     -12.048017      -327.8432
   7   2.0000     -12.046551      -327.8033
   8   2.0000     -12.043867      -327.7303
   9   2.0000     -12.043831      -327.7293
  10   2.0000     -12.033167      -327.4391
  11   2.0000     -12.033011      -327.4349
  12   2.0000      -1.401485       -38.1363
  13   2.0000      -1.354795       -36.8658
  14   2.0000      -1.302722       -35.4489
  15   2.0000      -1.285325       -34.9755
  16   2.0000      -1.259553       -34.2742
  17   2.0000      -1.194054       -32.4919
  18   2.0000      -1.187122       -32.3032
  19   2.0000      -1.108892       -30.1745
  20   2.0000      -1.098942       -29.9037
  21   2.0000      -1.082831       -29.4653
  22   2.0000      -0.982976       -26.7481
  23   2.0000      -0.980802       -26.6890
  24   2.0000      -0.964125       -26.2352
  25   2.0000      -0.910124       -24.7657
  26   2.0000      -0.892439       -24.2845
  27   2.0000      -0.892027       -24.2733
  28   2.0000      -0.870077       -23.6760
  29   2.0000      -0.853570       -23.2268
  30   2.0000      -0.842314       -22.9205
  31   2.0000      -0.833670       -22.6853
  32   2.0000      -0.823519       -22.4091
  33   2.0000      -0.814951       -22.1759
  34   2.0000      -0.806769       -21.9533
  35   2.0000      -0.802751       -21.8440
  36   2.0000      -0.789134       -21.4734
  37   2.0000      -0.783063       -21.3082
  38   2.0000      -0.713877       -19.4256
  39   2.0000      -0.677192       -18.4273
  40   2.0000      -0.621572       -16.9138
  41   2.0000      -0.595409       -16.2019
  42   0.0000      -0.280018        -7.6197
  43   0.0000      -0.257005        -6.9935
  44   0.0000      -0.195314        -5.3148
  45   0.0000      -0.131708        -3.5840
  46   0.0000      -0.056951        -1.5497

MULLIKEN ATOMIC CHARGES
-----------------------
   0 C :   -0.401498
   1 C :    0.093406
   2 C :   -0.337650
   3 C :    0.162989
   4 C :   -0.261051
   5 C :   -0.154109
   6 C :   -0.155227
   7 C :   -0.260265
   8 C :    0.162768
   9 C :   -0.337627
  10 C :    0.093096
  11 C :   -0.401623
  12 H :    0.142868
  13 H :    0.142858
  14 H :    0.143336
  15 H :    0.151746
  16 H :    0.157609
  17 H :    0.159978
  18 H :    0.159867
  19 H :    0.157647
  20 H :    0.151745
  21 H :    0.142880
  22 H :    0.143387
  23 H :    0.142869
Sum of atomic charges:    0.0000000

LOEWDIN ATOMIC CHARGES
----------------------
   0 C :   -0.249556
   1 C :   -0.144584
   2 C :   -0.088771
   3 C :   -0.109075
   4 C :   -0.111485
   5 C :   -0.154478
   6 C :   -0.154482
   7 C :   -0.111482
   8 C :   -0.109075
   9 C :   -0.088771
  10 C :   -0.144584
  11 C :   -0.249557
  12 H :    0.132777
  13 H :    0.132799
  14 H :    0.129977
  15 H :    0.157088
  16 H :    0.154762
  17 H :    0.150547
  18 H :    0.150548
  19 H :    0.154761
  20 H :    0.157089
  21 H :    0.132778
  22 H :    0.129978
  23 H :    0.132795

  Mayer bond orders larger than 0.100000
B(  0-C ,  1-C ) :   0.9350 B(  0-C , 12-H ) :   0.9726 B(  0-C , 13-H ) :   0.9726
B(  0-C , 14-H ) :   0.9856 B(  1-C ,  2-C ) :   1.5534 B(  1-C , 10-C ) :   1.1751
B(  2-C ,  3-C ) :   1.1922 B(  2-C , 15-H ) :   0.9841 B(  3-C ,  4-C ) :   1.1986
B(  3-C ,  8-C ) :   1.2396 B(  4-C ,  5-C ) :   1.5493 B(  4-C , 16-H ) :   0.9901
B(  5-C ,  6-C ) :   1.2510 B(  5-C , 17-H ) :   0.9798 B(  6-C ,  7-C ) :   1.5488
B(  6-C , 18-H ) :   0.9802 B(  7-C ,  8-C ) :   1.1987 B(  7-C , 19-H ) :   0.9899
B(  8-C ,  9-C ) :   1.1920 B(  9-C , 10-C ) :   1.5533 B(  9-C , 20-H ) :   0.9842
B( 10-C , 11-C ) :   0.9351 B( 11-C , 21-H ) :   0.9726 B( 11-C , 22-H ) :   0.9857
B( 11-C , 23-H ) :   0.9725

FINAL SINGLE POINT ENERGY      -464.544356177875

DIPOLE MOMENT
-------------

Method             : SCF
Type of density    : Electron Density
Multiplicity       :   1
Irrep              :   0
Energy             :  -464.5577485526752071 Eh
Relativity type    :
Basis              : AO
                                X                 Y                 Z
Electronic contribution:      8.335199559      -0.000083387       0.002029813
Nuclear contribution   :     -8.896644436       0.000089465      -0.002469901
                        -----------------------------------------
Total Dipole Moment    :     -0.561444877       0.000006078      -0.000440088
                        -----------------------------------------
Magnitude (a.u.)       :      0.561445049
Magnitude (Debye)      :      1.427079903

Rotational constants in cm-1:             0.072712             0.022339             0.017197
Rotational constants in MHz :          2179.841186           669.695200           515.558981

                             ****ORCA TERMINATED NORMALLY****
TOTAL RUN TIME: 0 days 0 hours 5 minutes 38 seconds 637 msec
