                         Program Version 6.0.0  -   RELEASE  -
|  1> ! r2scan-3c def2/J RI DEFGRID2 scfconv6 printgap
|  2> %output
|  3>     printlevel normal
|  4> end
|  5> * xyz 0 1
|  6> C -2.1042903694 -0.5551668622 -0.7107317823
|  7> C -1.3563085675 -0.3219525736 0.6055947281
|  8> C -0.0082887245 0.2817252602 0.3113281186
|  9> O 0.2472315184 1.4674769978 0.3536385215
| 10> O 0.8696167747 -0.6456080735 -0.0494920236
| 11> C 2.1879919974 -0.2338823632 -0.4210733677
| 12> H -1.5512266063 -1.2466543667 -1.3408560735
| 13> H -3.0850479464 -0.9729217614 -0.5049958702
| 14> H -2.2290016776 0.3834676154 -1.2453681706
| 15> H -1.2114456117 -1.2705154285 1.1207788799
| 16> H -1.9135902815 0.3691832705 1.2367147472
| 17> H 2.1631037775 0.780868864 -0.8200382668
| 18> H 2.5293702585 -0.9424624685 -1.1705077858
| 19> H 2.8330021913 -0.2650328741 0.4570079415
| 20> *
| 21>
| 22>                          ****END OF INPUT****

CARTESIAN COORDINATES (ANGSTROEM)
---------------------------------
  C     -2.104290   -0.555167   -0.710732
  C     -1.356309   -0.321953    0.605595
  C     -0.008289    0.281725    0.311328
  O      0.247232    1.467477    0.353639
  O      0.869617   -0.645608   -0.049492
  C      2.187992   -0.233882   -0.421073
  H     -1.551227   -1.246654   -1.340856
  H     -3.085048   -0.972922   -0.504996
  H     -2.229002    0.383468   -1.245368
  H     -1.211446   -1.270515    1.120779
  H     -1.913590    0.369183    1.236715
  H      2.163104    0.780869   -0.820038
  H      2.529370   -0.942462   -1.170508
  H      2.833002   -0.265033    0.457008

 Total Charge           Charge          ....    0
 Multiplicity           Mult            ....    1
 Number of Electrons    NEL             ....   48
 Basis Dimension        Dim             ....  164

ORBITAL ENERGIES
----------------

  NO   OCC          E(Eh)            E(eV)
   0   2.0000     -18.999819      -517.0113
   1   2.0000     -18.928603      -515.0735
   2   2.0000     -10.152688      -276.2687
   3   2.0000     -10.086524      -274.4683
   4   2.0000     -10.044677      -273.3295
   5   2.0000     -10.032647      -273.0022
   6   2.0000      -1.073581       -29.2136
   7   2.0000      -0.976109       -26.5613
   8   2.0000      -0.762494       -20.7485
   9   2.0000      -0.696204       -18.9447
  10   2.0000      -0.613656       -16.6984
  11   2.0000      -0.534634       -14.5481
  12   2.0000      -0.470766       -12.8102
  13   2.0000      -0.452031       -12.3004
  14   2.0000      -0.448455       -12.2031
  15   2.0000      -0.409686       -11.1481
  16   2.0000      -0.402348       -10.9484
  17   2.0000      -0.378377       -10.2962
  18   2.0000      -0.351386        -9.5617
  19   2.0000      -0.332875        -9.0580
  20   2.0000      -0.328771        -8.9463
  21   2.0000      -0.316610        -8.6154
  22   2.0000      -0.273222        -7.4347
  23   2.0000      -0.235235        -6.4011
  24   0.0000      -0.015313        -0.4167
  25   0.0000       0.064172         1.7462
  26   0.0000       0.095191         2.5903
  27   0.0000       0.123097         3.3497
  28   0.0000       0.125407         3.4125

MULLIKEN ATOMIC CHARGES
-----------------------
   0 C :   -0.470606
   1 C :   -0.285660
   2 C :    0.414479
   3 O :   -0.430219
   4 O :   -0.195910
   5 C :   -0.294077
   6 H :    0.157115
   7 H :    0.153545
   8 H :    0.158359
   9 H :    0.151758
  10 H :    0.161905
  11 H :    0.179262
  12 H :    0.148530
  13 H :    0.151520
Sum of atomic charges:   -0.0000000

LOEWDIN ATOMIC CHARGES
----------------------
   0 C :   -0.391933
   1 C :   -0.236000
   2 C :    0.352659
   3 O :   -0.430947
   4 O :   -0.603674
   5 C :   -0.045041
   6 H :    0.158113
   7 H :    0.153232
   8 H :    0.159193
   9 H :    0.174209
  10 H :    0.174575
  11 H :    0.188094
  12 H :    0.174880
  13 H :    0.172641

  Mayer bond orders larger than 0.100000
B(  0-C ,  1-C ) :   0.8964 B(  0-C ,  6-H ) :   0.9771 B(  0-C ,  7-H ) :   0.9705
B(  0-C ,  8-H ) :   0.9741 B(  1-C ,  2-C ) :   0.9640 B(  1-C ,  9-H ) :   0.9685
B(  1-C , 10-H ) :   0.9740 B(  2-C ,  3-O ) :   1.8387 B(  2-C ,  4-O ) :   1.0433
B(  4-O ,  5-C ) :   0.8449 B(  5-C , 11-H ) :   0.9648 B(  5-C , 12-H ) :   0.9688
B(  5-C , 13-H ) :   0.9614

Dispersion correction           -0.003004398
FINAL SINGLE POINT ENERGY      -307.630732902585

DIPOLE MOMENT
-------------

Method             : SCF
Type of density    : Electron Density
Multiplicity       :   1
Irrep              :   0
Energy             :  -307.6371291544188580 Eh
Relativity type    :
Basis              : AO
                                X                 Y                 Z
Electronic contribution:      2.361132940       2.152680470       1.923954718
Nuclear contribution   :     -2.295853409      -2.956235091      -2.122569188
                        -----------------------------------------
Total Dipole Moment    :      0.065279531      -0.803554621      -0.198614470
                        -----------------------------------------
Magnitude (a.u.)       :      0.830306662
Magnitude (Debye)      :      2.110471814

Rotational constants in cm-1:             0.219330             0.081514             0.068146
Rotational constants in MHz :          6575.361037          2443.720417          2042.963439

                             ****ORCA TERMINATED NORMALLY****
TOTAL RUN TIME: 0 days 0 hours 0 minutes 16 seconds 756 msec
