                         Program Version 6.0.0  -   RELEASE  -
|  1> ! pbe def2-sv(p) def2/J RI DEFGRID1 loosescf d4 GCP(DFT/SV(P)) printgap
|  2> %output
|  3>     printlevel normal
|  4> end
|  5> * xyz 0 1
|  6> C -2.6947704482 -0.9668869733 0.0011134034
|  7> S -1.8220256791 0.6279702526 -0.0005037443
|  8> C -0.1072885451 0.1892888065 -5.27147e-05
|  9> C 0.7961495195 1.2492241409 0.0001935776
| 10> C 2.1540233953 1.0015692942 0.0004847983
| 11> C 2.6247969651 -0.3028256462 0.0004132982
| 12> C 1.7248659541 -1.3536009872 -0.0003719538
| 13> C 0.3603687983 -1.1166292342 -0.000649832
| 14> H -2.4441170464 -1.5206158418 0.900234137
| 15> H -2.4452590186 -1.5219112004 -0.8975137545
| 16> H -3.7498828812 -0.7138101299 0.0015899176
| 17> H 0.4175802404 2.2604660903 -7.47548e-05
| 18> H 2.8467699627 1.8292722259 0.0002542892
| 19> H 3.6861674859 -0.4967493985 0.0005649815
| 20> H 2.0817054043 -2.3725970356 -0.0009473189
| 21> H -0.320577133 -1.9518683889 -0.0015543806
| 22> *
| 23>
| 24>                          ****END OF INPUT****

CARTESIAN COORDINATES (ANGSTROEM)
---------------------------------
  C     -2.694770   -0.966887    0.001113
  S     -1.822026    0.627970   -0.000504
  C     -0.107289    0.189289   -0.000053
  C      0.796150    1.249224    0.000194
  C      2.154023    1.001569    0.000485
  C      2.624797   -0.302826    0.000413
  C      1.724866   -1.353601   -0.000372
  C      0.360369   -1.116629   -0.000650
  H     -2.444117   -1.520616    0.900234
  H     -2.445259   -1.521911   -0.897514
  H     -3.749883   -0.713810    0.001590
  H      0.417580    2.260466   -0.000075
  H      2.846770    1.829272    0.000254
  H      3.686167   -0.496749    0.000565
  H      2.081705   -2.372597   -0.000947
  H     -0.320577   -1.951868   -0.001554

 Total Charge           Charge          ....    0
 Multiplicity           Mult            ....    1
 Number of Electrons    NEL             ....   66
 Basis Dimension        Dim             ....  132

ORBITAL ENERGIES
----------------

  NO   OCC          E(Eh)            E(eV)
   0   2.0000     -88.031868     -2395.4689
   1   2.0000      -9.924268      -270.0531
   2   2.0000      -9.916666      -269.8462
   3   2.0000      -9.893732      -269.2221
   4   2.0000      -9.893668      -269.2204
   5   2.0000      -9.892505      -269.1887
   6   2.0000      -9.892321      -269.1837
   7   2.0000      -9.888301      -269.0743
   8   2.0000      -7.675822      -208.8697
   9   2.0000      -5.704466      -155.2264
  10   2.0000      -5.699943      -155.1033
  11   2.0000      -5.692643      -154.9047
  12   2.0000      -0.784861       -21.3571
  13   2.0000      -0.727348       -19.7921
  14   2.0000      -0.673411       -18.3244
  15   2.0000      -0.663467       -18.0539
  16   2.0000      -0.588759       -16.0209
  17   2.0000      -0.544732       -14.8229
  18   2.0000      -0.518988       -14.1224
  19   2.0000      -0.466664       -12.6986
  20   2.0000      -0.412860       -11.2345
  21   2.0000      -0.402883       -10.9630
  22   2.0000      -0.398725       -10.8499
  23   2.0000      -0.394983       -10.7480
  24   2.0000      -0.376729       -10.2513
  25   2.0000      -0.356630        -9.7044
  26   2.0000      -0.338864        -9.2209
  27   2.0000      -0.317043        -8.6272
  28   2.0000      -0.303600        -8.2614
  29   2.0000      -0.279947        -7.6177
  30   2.0000      -0.256945        -6.9918
  31   2.0000      -0.230830        -6.2812
  32   2.0000      -0.180174        -4.9028
  33   0.0000      -0.035700        -0.9714
  34   0.0000      -0.030100        -0.8191
  35   0.0000       0.010711         0.2915
  36   0.0000       0.034528         0.9396
  37   0.0000       0.064135         1.7452

MULLIKEN ATOMIC CHARGES
-----------------------
   0 C :   -0.375508
   1 S :   -0.021025
   2 C :    0.045871
   3 C :   -0.088448
   4 C :   -0.053053
   5 C :   -0.052447
   6 C :   -0.044758
   7 C :   -0.129358
   8 H :    0.156746
   9 H :    0.156769
  10 H :    0.154425
  11 H :    0.050344
  12 H :    0.055743
  13 H :    0.051286
  14 H :    0.051924
  15 H :    0.041489
Sum of atomic charges:   -0.0000000

LOEWDIN ATOMIC CHARGES
----------------------
   0 C :   -0.454978
   1 S :    0.274809
   2 C :   -0.162109
   3 C :   -0.141732
   4 C :   -0.117330
   5 C :   -0.139439
   6 C :   -0.116024
   7 C :   -0.156876
   8 H :    0.129144
   9 H :    0.129115
  10 H :    0.136611
  11 H :    0.123872
  12 H :    0.125361
  13 H :    0.123131
  14 H :    0.123828
  15 H :    0.122616

  Mayer bond orders larger than 0.100000
B(  0-C ,  1-S ) :   1.0578 B(  0-C ,  8-H ) :   0.9346 B(  0-C ,  9-H ) :   0.9345
B(  0-C , 10-H ) :   0.9440 B(  1-S ,  2-C ) :   1.0184 B(  2-C ,  3-C ) :   1.3660
B(  2-C ,  7-C ) :   1.3809 B(  3-C ,  4-C ) :   1.4235 B(  3-C , 11-H ) :   0.9587
B(  4-C ,  5-C ) :   1.3596 B(  4-C , 12-H ) :   0.9631 B(  5-C ,  6-C ) :   1.3895
B(  5-C , 13-H ) :   0.9657 B(  6-C ,  7-C ) :   1.3831 B(  6-C , 14-H ) :   0.9602
B(  7-C , 15-H ) :   0.9544

Dispersion correction           -0.017569668
FINAL SINGLE POINT ENERGY      -668.835567193039

DIPOLE MOMENT
-------------

Method             : SCF
Type of density    : Electron Density
Multiplicity       :   1
Irrep              :   0
Energy             :  -668.8765523270444646 Eh
Relativity type    :
Basis              : AO
                                X                 Y                 Z
Electronic contribution:     -0.275298340       3.731511080      -0.002312982
Nuclear contribution   :      0.120055518      -4.228322588       0.002409685
                        -----------------------------------------
Total Dipole Moment    :     -0.155242822      -0.496811508       0.000096703
                        -----------------------------------------
Magnitude (a.u.)       :      0.520501698
Magnitude (Debye)      :      1.323010174

Rotational constants in cm-1:             0.142531             0.039064             0.030843
Rotational constants in MHz :          4272.961445          1171.097807           924.656201

                             ****ORCA TERMINATED NORMALLY****
TOTAL RUN TIME: 0 days 0 hours 0 minutes 7 seconds 289 msec
