                         Program Version 6.0.0  -   RELEASE  -
|  1> ! pbe def2-sv(p) def2/J RI DEFGRID1 loosescf d4 GCP(DFT/SV(P)) printgap
|  2> %output
|  3>     printlevel normal
|  4> end
|  5> * xyz 0 1
|  6> C -2.4032543489 -0.7401603609 -0.0276333905
|  7> C -0.9857784158 -0.2989959231 0.363455301
|  8> H -0.9761134907 0.0323013158 1.4153852778
|  9> C -0.5049264369 0.86263194 -0.5213855703
| 10> H -0.4208115559 0.513473793 -1.5557257714
| 11> C 0.8797266033 1.3281405755 -0.0389997785
| 12> H 0.7391661966 1.9761997998 0.8440049947
| 13> C 1.7397437789 0.1450931669 0.4359982782
| 14> H 2.7507896086 0.2987146835 0.0370486529
| 15> C 1.206048261 -1.183939381 -0.1234691958
| 16> H 1.7689262565 -2.0207544397 0.3215254719
| 17> O -0.1232656828 -1.4293098735 0.2543937758
| 18> O 1.3703243083 -1.1678954989 -1.5068837151
| 19> O 1.7227017951 0.1448873445 1.8406107188
| 20> O 1.5829958393 2.0216967054 -1.0361657491
| 21> O -1.4173029685 1.9296061902 -0.5514109022
| 22> O -2.9848709001 -1.6413567654 0.8773168668
| 23> H -2.3593201203 -1.2673838743 -0.982126251
| 24> H -3.0249459155 0.1562743707 -0.1459472347
| 25> H 1.1210128774 -2.0282480509 -1.8788157136
| 26> H 2.3616495746 -0.4958720662 2.1844030033
| 27> H 0.9925882893 2.6757407154 -1.4402105387
| 28> H -1.5003769795 2.3146633591 0.3345166262
| 29> H -3.0273125976 -1.2389629048 1.7565015064
| 30> *
| 31>
| 32>                          ****END OF INPUT****

CARTESIAN COORDINATES (ANGSTROEM)
---------------------------------
  C     -2.403254   -0.740160   -0.027633
  C     -0.985778   -0.298996    0.363455
  H     -0.976113    0.032301    1.415385
  C     -0.504926    0.862632   -0.521386
  H     -0.420812    0.513474   -1.555726
  C      0.879727    1.328141   -0.039000
  H      0.739166    1.976200    0.844005
  C      1.739744    0.145093    0.435998
  H      2.750790    0.298715    0.037049
  C      1.206048   -1.183939   -0.123469
  H      1.768926   -2.020754    0.321525
  O     -0.123266   -1.429310    0.254394
  O      1.370324   -1.167895   -1.506884
  O      1.722702    0.144887    1.840611
  O      1.582996    2.021697   -1.036166
  O     -1.417303    1.929606   -0.551411
  O     -2.984871   -1.641357    0.877317
  H     -2.359320   -1.267384   -0.982126
  H     -3.024946    0.156274   -0.145947
  H      1.121013   -2.028248   -1.878816
  H      2.361650   -0.495872    2.184403
  H      0.992588    2.675741   -1.440211
  H     -1.500377    2.314663    0.334517
  H     -3.027313   -1.238963    1.756502

 Total Charge           Charge          ....    0
 Multiplicity           Mult            ....    1
 Number of Electrons    NEL             ....   96
 Basis Dimension        Dim             ....  192

ORBITAL ENERGIES
----------------

  NO   OCC          E(Eh)            E(eV)
   0   2.0000     -18.763582      -510.5830
   1   2.0000     -18.762605      -510.5564
   2   2.0000     -18.762325      -510.5488
   3   2.0000     -18.762065      -510.5418
   4   2.0000     -18.746867      -510.1282
   5   2.0000     -18.738675      -509.9053
   6   2.0000      -9.985463      -271.7183
   7   2.0000      -9.945000      -270.6172
   8   2.0000      -9.942560      -270.5508
   9   2.0000      -9.940751      -270.5016
  10   2.0000      -9.940607      -270.4977
  11   2.0000      -9.924188      -270.0509
  12   2.0000      -0.978575       -26.6284
  13   2.0000      -0.946308       -25.7504
  14   2.0000      -0.937459       -25.5096
  15   2.0000      -0.921824       -25.0841
  16   2.0000      -0.918008       -24.9803
  17   2.0000      -0.905865       -24.6498
  18   2.0000      -0.703841       -19.1525
  19   2.0000      -0.689450       -18.7609
  20   2.0000      -0.614148       -16.7118
  21   2.0000      -0.594234       -16.1699
  22   2.0000      -0.558618       -15.2008
  23   2.0000      -0.523540       -14.2462
  24   2.0000      -0.513916       -13.9844
  25   2.0000      -0.490591       -13.3496
  26   2.0000      -0.468640       -12.7523
  27   2.0000      -0.466438       -12.6924
  28   2.0000      -0.431639       -11.7455
  29   2.0000      -0.422875       -11.5070
  30   2.0000      -0.419093       -11.4041
  31   2.0000      -0.396422       -10.7872
  32   2.0000      -0.381092       -10.3701
  33   2.0000      -0.371622       -10.1124
  34   2.0000      -0.362601        -9.8669
  35   2.0000      -0.345414        -9.3992
  36   2.0000      -0.341886        -9.3032
  37   2.0000      -0.308481        -8.3942
  38   2.0000      -0.304302        -8.2805
  39   2.0000      -0.292830        -7.9683
  40   2.0000      -0.272935        -7.4269
  41   2.0000      -0.266127        -7.2417
  42   2.0000      -0.250744        -6.8231
  43   2.0000      -0.247055        -6.7227
  44   2.0000      -0.229683        -6.2500
  45   2.0000      -0.223129        -6.0716
  46   2.0000      -0.211482        -5.7547
  47   2.0000      -0.197133        -5.3642
  48   0.0000       0.014861         0.4044
  49   0.0000       0.016812         0.4575
  50   0.0000       0.026061         0.7091
  51   0.0000       0.035845         0.9754
  52   0.0000       0.057342         1.5603

MULLIKEN ATOMIC CHARGES
-----------------------
   0 C :    0.105855
   1 C :   -0.003474
   2 H :    0.035222
   3 C :    0.019133
   4 H :    0.074792
   5 C :    0.100677
   6 H :    0.046984
   7 C :    0.041655
   8 H :    0.083921
   9 C :    0.149818
  10 H :    0.046828
  11 O :   -0.301462
  12 O :   -0.380288
  13 O :   -0.418056
  14 O :   -0.408187
  15 O :   -0.410001
  16 O :   -0.428259
  17 H :    0.074345
  18 H :    0.070880
  19 H :    0.304806
  20 H :    0.304597
  21 H :    0.302349
  22 H :    0.297125
  23 H :    0.290738
Sum of atomic charges:   -0.0000000

LOEWDIN ATOMIC CHARGES
----------------------
   0 C :   -0.129908
   1 C :   -0.074768
   2 H :    0.096223
   3 C :   -0.091444
   4 H :    0.123749
   5 C :   -0.062604
   6 H :    0.100206
   7 C :   -0.074371
   8 H :    0.117617
   9 C :   -0.013710
  10 H :    0.089590
  11 O :   -0.143780
  12 O :   -0.307325
  13 O :   -0.311834
  14 O :   -0.314120
  15 O :   -0.307550
  16 O :   -0.333700
  17 H :    0.116211
  18 H :    0.097294
  19 H :    0.287667
  20 H :    0.289436
  21 H :    0.285531
  22 H :    0.281774
  23 H :    0.279816

  Mayer bond orders larger than 0.100000
B(  0-C ,  1-C ) :   1.0320 B(  0-C , 16-O ) :   1.0827 B(  0-C , 17-H ) :   0.9057
B(  0-C , 18-H ) :   0.9093 B(  1-C ,  2-H ) :   0.8695 B(  1-C ,  3-C ) :   1.0210
B(  1-C , 11-O ) :   0.9831 B(  3-C ,  4-H ) :   0.8243 B(  3-C ,  5-C ) :   1.0675
B(  3-C , 15-O ) :   1.0069 B(  5-C ,  6-H ) :   0.8675 B(  5-C ,  7-C ) :   0.9779
B(  5-C , 14-O ) :   1.0977 B(  7-C ,  8-H ) :   0.8724 B(  7-C ,  9-C ) :   1.0423
B(  7-C , 13-O ) :   1.0334 B(  9-C , 10-H ) :   0.8939 B(  9-C , 11-O ) :   1.0785
B(  9-C , 12-O ) :   1.1450 B( 12-O , 19-H ) :   0.8396 B( 13-O , 20-H ) :   0.8463
B( 14-O , 21-H ) :   0.8410 B( 15-O , 22-H ) :   0.8445 B( 16-O , 23-H ) :   0.8540

Dispersion correction           -0.024399381
FINAL SINGLE POINT ENERGY      -685.686113822341

DIPOLE MOMENT
-------------

Method             : SCF
Type of density    : Electron Density
Multiplicity       :   1
Irrep              :   0
Energy             :  -685.8151456556025778 Eh
Relativity type    :
Basis              : AO
                                X                 Y                 Z
Electronic contribution:      1.778128478      -0.689364469      -0.244131737
Nuclear contribution   :     -1.475150581       0.857392292       0.833687375
                        -----------------------------------------
Total Dipole Moment    :      0.302977897       0.168027823       0.589555638
                        -----------------------------------------
Magnitude (a.u.)       :      0.683816354
Magnitude (Debye)      :      1.738123040

Rotational constants in cm-1:             0.040368             0.025339             0.020831
Rotational constants in MHz :          1210.192755           759.645123           624.499513

                             ****ORCA TERMINATED NORMALLY****
TOTAL RUN TIME: 0 days 0 hours 0 minutes 12 seconds 80 msec
