                         Program Version 6.0.0  -   RELEASE  -
|  1> ! pbe def2-sv(p) def2/J RI DEFGRID1 loosescf d4 GCP(DFT/SV(P)) printgap
|  2> %output
|  3>     printlevel normal
|  4> end
|  5> * xyz 0 1
|  6> N 0.7308712293 -9.8523e-06 -0.0893096788
|  7> N -0.7308723407 7.6737e-06 0.0893127115
|  8> H 1.0632313667 0.8131807789 0.4265716711
|  9> H 1.0632284684 -0.8130933355 0.426551392
| 10> H -1.0632356553 -0.8131714851 -0.426521158
| 11> H -1.0632087351 0.8131143162 -0.4266440489
| 12> *
| 13>
| 14>                          ****END OF INPUT****

CARTESIAN COORDINATES (ANGSTROEM)
---------------------------------
  N      0.730871   -0.000010   -0.089310
  N     -0.730872    0.000008    0.089313
  H      1.063231    0.813181    0.426572
  H      1.063228   -0.813093    0.426551
  H     -1.063236   -0.813171   -0.426521
  H     -1.063209    0.813114   -0.426644

 Total Charge           Charge          ....    0
 Multiplicity           Mult            ....    1
 Number of Electrons    NEL             ....   18
 Basis Dimension        Dim             ....   36

ORBITAL ENERGIES
----------------

  NO   OCC          E(Eh)            E(eV)
   0   2.0000     -13.979627      -380.4050
   1   2.0000     -13.979429      -380.3996
   2   2.0000      -0.844086       -22.9687
   3   2.0000      -0.667853       -18.1732
   4   2.0000      -0.464356       -12.6358
   5   2.0000      -0.395311       -10.7570
   6   2.0000      -0.361827        -9.8458
   7   2.0000      -0.280881        -7.6432
   8   2.0000      -0.137369        -3.7380
   9   0.0000       0.035776         0.9735
  10   0.0000       0.060918         1.6577
  11   0.0000       0.093755         2.5512
  12   0.0000       0.131428         3.5763
  13   0.0000       0.160402         4.3648

MULLIKEN ATOMIC CHARGES
-----------------------
   0 N :   -0.415369
   1 N :   -0.415370
   2 H :    0.207689
   3 H :    0.207679
   4 H :    0.207685
   5 H :    0.207687
Sum of atomic charges:    0.0000000

LOEWDIN ATOMIC CHARGES
----------------------
   0 N :   -0.395475
   1 N :   -0.395470
   2 H :    0.197737
   3 H :    0.197735
   4 H :    0.197736
   5 H :    0.197736

  Mayer bond orders larger than 0.100000
B(  0-N ,  1-N ) :   1.0623 B(  0-N ,  2-H ) :   0.9155 B(  0-N ,  3-H ) :   0.9155
B(  1-N ,  4-H ) :   0.9155 B(  1-N ,  5-H ) :   0.9155

Dispersion correction           -0.001511784
FINAL SINGLE POINT ENERGY      -111.585758870103

DIPOLE MOMENT
-------------

Method             : SCF
Type of density    : Electron Density
Multiplicity       :   1
Irrep              :   0
Energy             :  -111.6155742982566608 Eh
Relativity type    :
Basis              : AO
                                X                 Y                 Z
Electronic contribution:     -0.000001542      -0.000065612       0.000026731
Nuclear contribution   :      0.000014484       0.000028391      -0.000039521
                        -----------------------------------------
Total Dipole Moment    :      0.000012942      -0.000037221      -0.000012790
                        -----------------------------------------
Magnitude (a.u.)       :      0.000041430
Magnitude (Debye)      :      0.000105307

Rotational constants in cm-1:             4.652854             0.823150             0.759755
Rotational constants in MHz :        139489.066113         24677.404288         22776.890547

                             ****ORCA TERMINATED NORMALLY****
TOTAL RUN TIME: 0 days 0 hours 0 minutes 3 seconds 561 msec
