                         Program Version 6.0.0  -   RELEASE  -
|  1> ! wb97x-v def2-tzvp def2/J RIJCOSX DEFGRID2 scfconv7 GCP(DFT/TZ) printgap
|  2> %output
|  3>     printlevel normal
|  4> end
|  5> * xyz 0 1
|  6> C -1.9467406807551477 -0.13876326671949898 7.369360886951859e-05
|  7> C -0.5697795849301014 0.5209273530609811 0.00016237642588851837
|  8> C 0.5612490188147102 -0.5040869922491412 -0.0002646882645858633
|  9> N 1.9228745229629685 0.06253012754285331 9.938244802775318e-05
| 10> H -2.0784056536128626 -0.7713781385038541 -0.8849511268236632
| 11> H -2.0783410986598585 -0.7717149869189628 0.8848670824747438
| 12> H -2.7483411236312256 0.6063031579018083 0.00024162557100139418
| 13> H -0.4647442074490117 1.1669527395258328 0.8821360722378611
| 14> H -0.4648922484132611 1.167460859836477 -0.8814613087278413
| 15> H 0.4594912431527039 -1.1541035371327202 0.8778127221512866
| 16> H 0.4595204335317789 -1.153266004110274 -0.8789734964514772
| 17> H 2.00219150443974 0.6783897455100506 0.8055655518009889
| 18> H 2.0015653573508527 0.6810064992970111 -0.8034181227990339
| 19> *
| 20>
| 21>                          ****END OF INPUT****

CARTESIAN COORDINATES (ANGSTROEM)
---------------------------------
  C     -1.946741   -0.138763    0.000074
  C     -0.569780    0.520927    0.000162
  C      0.561249   -0.504087   -0.000265
  N      1.922875    0.062530    0.000099
  H     -2.078406   -0.771378   -0.884951
  H     -2.078341   -0.771715    0.884867
  H     -2.748341    0.606303    0.000242
  H     -0.464744    1.166953    0.882136
  H     -0.464892    1.167461   -0.881461
  H      0.459491   -1.154104    0.877813
  H      0.459520   -1.153266   -0.878973
  H      2.002192    0.678390    0.805566
  H      2.001565    0.681006   -0.803418

 Total Charge           Charge          ....    0
 Multiplicity           Mult            ....    1
 Number of Electrons    NEL             ....   34
 Basis Dimension        Dim             ....  178

ORBITAL ENERGIES
----------------

  NO   OCC          E(Eh)            E(eV)
   0   2.0000     -16.503326      -449.0783
   1   2.0000     -12.063606      -328.2674
   2   2.0000     -12.042055      -327.6810
   3   2.0000     -12.037079      -327.5456
   4   2.0000      -1.440156       -39.1886
   5   2.0000      -1.278263       -34.7833
   6   2.0000      -1.162463       -31.6322
   7   2.0000      -1.067674       -29.0529
   8   2.0000      -0.959297       -26.1038
   9   2.0000      -0.915107       -24.9013
  10   2.0000      -0.876113       -23.8403
  11   2.0000      -0.856991       -23.3199
  12   2.0000      -0.824114       -22.4253
  13   2.0000      -0.803113       -21.8538
  14   2.0000      -0.784108       -21.3367
  15   2.0000      -0.750951       -20.4344
  16   2.0000      -0.725038       -19.7293
  17   0.0000      -0.076221        -2.0741
  18   0.0000      -0.032269        -0.8781
  19   0.0000      -0.004792        -0.1304
  20   0.0000       0.002788         0.0759
  21   0.0000       0.018307         0.4982

MULLIKEN ATOMIC CHARGES
-----------------------
   0 C :   -0.343523
   1 C :   -0.164042
   2 C :   -0.093740
   3 N :   -0.469427
   4 H :    0.105575
   5 H :    0.105571
   6 H :    0.114492
   7 H :    0.079474
   8 H :    0.079491
   9 H :    0.094849
  10 H :    0.094846
  11 H :    0.198224
  12 H :    0.198211
Sum of atomic charges:    0.0000000

LOEWDIN ATOMIC CHARGES
----------------------
   0 C :   -0.308224
   1 C :   -0.311314
   2 C :   -0.339080
   3 N :   -0.177930
   4 H :    0.116621
   5 H :    0.116619
   6 H :    0.116224
   7 H :    0.125904
   8 H :    0.125909
   9 H :    0.125036
  10 H :    0.125032
  11 H :    0.142605
  12 H :    0.142599

  Mayer bond orders larger than 0.100000
B(  0-C ,  1-C ) :   0.9837 B(  0-C ,  4-H ) :   0.9797 B(  0-C ,  5-H ) :   0.9797
B(  0-C ,  6-H ) :   0.9794 B(  1-C ,  2-C ) :   0.9953 B(  1-C ,  7-H ) :   0.9679
B(  1-C ,  8-H ) :   0.9679 B(  2-C ,  3-N ) :   1.0188 B(  2-C ,  9-H ) :   0.9734
B(  2-C , 10-H ) :   0.9733 B(  3-N , 11-H ) :   0.9515 B(  3-N , 12-H ) :   0.9515

FINAL SINGLE POINT ENERGY      -174.490254890334

DIPOLE MOMENT
-------------

Method             : SCF
Type of density    : Electron Density
Multiplicity       :   1
Irrep              :   0
Energy             :  -174.4993145634342682 Eh
Relativity type    :
Basis              : AO
                                X                 Y                 Z
Electronic contribution:      2.362745854       0.000961601      -0.000387127
Nuclear contribution   :     -2.794763103       0.441535881       0.001295174
                        -----------------------------------------
Total Dipole Moment    :     -0.432017249       0.442497482       0.000908047
                        -----------------------------------------
Magnitude (a.u.)       :      0.618420366
Magnitude (Debye)      :      1.571899649

Rotational constants in cm-1:             0.820907             0.123720             0.116437
Rotational constants in MHz :         24610.179021          3709.017985          3490.688125

                             ****ORCA TERMINATED NORMALLY****
TOTAL RUN TIME: 0 days 0 hours 0 minutes 47 seconds 692 msec
