                         Program Version 6.0.0  -   RELEASE  -
|  1> ! wb97x-v def2-tzvp def2/J RIJCOSX DEFGRID2 scfconv7 GCP(DFT/TZ) printgap
|  2> %output
|  3>     printlevel normal
|  4> end
|  5> %cpcm
|  6>     smd true
|  7>     smdsolvent "water"
|  8> end
|  9> * xyz 0 1
| 10> C -1.9467406807551477 -0.13876326671949898 7.369360886951859e-05
| 11> C -0.5697795849301014 0.5209273530609811 0.00016237642588851837
| 12> C 0.5612490188147102 -0.5040869922491412 -0.0002646882645858633
| 13> N 1.9228745229629685 0.06253012754285331 9.938244802775318e-05
| 14> H -2.0784056536128626 -0.7713781385038541 -0.8849511268236632
| 15> H -2.0783410986598585 -0.7717149869189628 0.8848670824747438
| 16> H -2.7483411236312256 0.6063031579018083 0.00024162557100139418
| 17> H -0.4647442074490117 1.1669527395258328 0.8821360722378611
| 18> H -0.4648922484132611 1.167460859836477 -0.8814613087278413
| 19> H 0.4594912431527039 -1.1541035371327202 0.8778127221512866
| 20> H 0.4595204335317789 -1.153266004110274 -0.8789734964514772
| 21> H 2.00219150443974 0.6783897455100506 0.8055655518009889
| 22> H 2.0015653573508527 0.6810064992970111 -0.8034181227990339
| 23> *
| 24>
| 25>                          ****END OF INPUT****

CARTESIAN COORDINATES (ANGSTROEM)
---------------------------------
  C     -1.946741   -0.138763    0.000074
  C     -0.569780    0.520927    0.000162
  C      0.561249   -0.504087   -0.000265
  N      1.922875    0.062530    0.000099
  H     -2.078406   -0.771378   -0.884951
  H     -2.078341   -0.771715    0.884867
  H     -2.748341    0.606303    0.000242
  H     -0.464744    1.166953    0.882136
  H     -0.464892    1.167461   -0.881461
  H      0.459491   -1.154104    0.877813
  H      0.459520   -1.153266   -0.878973
  H      2.002192    0.678390    0.805566
  H      2.001565    0.681006   -0.803418

 Total Charge           Charge          ....    0
 Multiplicity           Mult            ....    1
 Number of Electrons    NEL             ....   34
 Basis Dimension        Dim             ....  178

ORBITAL ENERGIES
----------------

  NO   OCC          E(Eh)            E(eV)
   0   2.0000     -16.498537      -448.9480
   1   2.0000     -12.054966      -328.0323
   2   2.0000     -12.029790      -327.3472
   3   2.0000     -12.025374      -327.2271
   4   2.0000      -1.434124       -39.0245
   5   2.0000      -1.267154       -34.4810
   6   2.0000      -1.153113       -31.3778
   7   2.0000      -1.057587       -28.7784
   8   2.0000      -0.952771       -25.9262
   9   2.0000      -0.907332       -24.6898
  10   2.0000      -0.864658       -23.5285
  11   2.0000      -0.848210       -23.0810
  12   2.0000      -0.813703       -22.1420
  13   2.0000      -0.793051       -21.5800
  14   2.0000      -0.774262       -21.0687
  15   2.0000      -0.739277       -20.1167
  16   2.0000      -0.721411       -19.6306
  17   0.0000      -0.068044        -1.8516
  18   0.0000      -0.016789        -0.4569
  19   0.0000       0.006129         0.1668
  20   0.0000       0.018383         0.5002
  21   0.0000       0.029104         0.7920

MULLIKEN ATOMIC CHARGES
-----------------------
   0 C :   -0.393247
   1 C :   -0.178169
   2 C :   -0.097051
   3 N :   -0.584947
   4 H :    0.119710
   5 H :    0.119713
   6 H :    0.128859
   7 H :    0.096061
   8 H :    0.096083
   9 H :    0.107005
  10 H :    0.106960
  11 H :    0.239517
  12 H :    0.239504
Sum of atomic charges:    0.0000000

LOEWDIN ATOMIC CHARGES
----------------------
   0 C :   -0.315010
   1 C :   -0.308718
   2 C :   -0.342820
   3 N :   -0.209038
   4 H :    0.118507
   5 H :    0.118506
   6 H :    0.118138
   7 H :    0.130139
   8 H :    0.130145
   9 H :    0.126290
  10 H :    0.126272
  11 H :    0.153798
  12 H :    0.153791

  Mayer bond orders larger than 0.100000
B(  0-C ,  1-C ) :   0.9788 B(  0-C ,  4-H ) :   0.9774 B(  0-C ,  5-H ) :   0.9774
B(  0-C ,  6-H ) :   0.9772 B(  1-C ,  2-C ) :   0.9924 B(  1-C ,  7-H ) :   0.9690
B(  1-C ,  8-H ) :   0.9690 B(  2-C ,  3-N ) :   0.9974 B(  2-C ,  9-H ) :   0.9729
B(  2-C , 10-H ) :   0.9729 B(  3-N , 11-H ) :   0.9375 B(  3-N , 12-H ) :   0.9375

FINAL SINGLE POINT ENERGY      -174.497031824795

DIPOLE MOMENT
-------------

Method             : SCF
Type of density    : Electron Density
Multiplicity       :   1
Irrep              :   0
Energy             :  -174.5060914978948858 Eh
Relativity type    :
Basis              : AO
                                X                 Y                 Z
Electronic contribution:      2.254966056       0.157266780      -0.000078854
Nuclear contribution   :     -2.794763103       0.441535881       0.001295174
                        -----------------------------------------
Total Dipole Moment    :     -0.539797047       0.598802661       0.001216320
                        -----------------------------------------
Magnitude (a.u.)       :      0.806192879
Magnitude (Debye)      :      2.049179447

Rotational constants in cm-1:             0.820907             0.123720             0.116437
Rotational constants in MHz :         24610.179021          3709.017985          3490.688125

                             ****ORCA TERMINATED NORMALLY****
TOTAL RUN TIME: 0 days 0 hours 0 minutes 49 seconds 438 msec
