                         Program Version 6.0.0  -   RELEASE  -
|  1> ! pbe def2-sv(p) def2/J RI DEFGRID1 loosescf d4 GCP(DFT/SV(P)) printgap
|  2> %output
|  3>     printlevel normal
|  4> end
|  5> * xyz 0 1
|  6> C -2.4277634218 -1.102533313 -0.2779817851
|  7> C -1.0645030985 -0.588459521 0.2078677028
|  8> H -1.0844623271 -0.5326433737 1.3086058771
|  9> C -0.7390148832 0.8025056282 -0.3544182924
| 10> H -0.6639439931 0.7209898105 -1.4478221056
| 11> C 0.6296434677 1.2372703648 0.1974356466
| 12> H 0.563969378 1.3097087831 1.2917721996
| 13> C 1.6893437352 0.1818016228 -0.1500902245
| 14> H 1.8515864574 0.1797607521 -1.2370674122
| 15> C 1.2189666675 -1.2227494927 0.2572274236
| 16> H 1.2300777817 -1.2746067384 1.3663873184
| 17> O -0.0815062485 -1.5104169705 -0.211532213
| 18> O 2.0763487578 -2.1439477866 -0.3008565326
| 19> O 2.8867404272 0.4340366602 0.5351978151
| 20> O 1.0612590826 2.4608520128 -0.3578881116
| 21> O -1.7648612563 1.6940497867 0.0138690797
| 22> O -3.4965475569 -0.5217191316 0.4174704261
| 23> H -2.4773271892 -2.1772860636 -0.0928200545
| 24> H -2.5155908597 -0.9290904414 -1.3582344407
| 25> H 1.735237266 -3.0401721135 -0.1504248064
| 26> H 3.2334259951 1.2906096725 0.2399442248
| 27> H 0.6637066636 3.2002108728 0.1227078288
| 28> H -1.691452282 2.5028052208 -0.5135695201
| 29> H -3.4000095442 0.4444898083 0.3720232618
| 30> *
| 31>
| 32>                          ****END OF INPUT****

CARTESIAN COORDINATES (ANGSTROEM)
---------------------------------
  C     -2.427763   -1.102533   -0.277982
  C     -1.064503   -0.588460    0.207868
  H     -1.084462   -0.532643    1.308606
  C     -0.739015    0.802506   -0.354418
  H     -0.663944    0.720990   -1.447822
  C      0.629643    1.237270    0.197436
  H      0.563969    1.309709    1.291772
  C      1.689344    0.181802   -0.150090
  H      1.851586    0.179761   -1.237067
  C      1.218967   -1.222749    0.257227
  H      1.230078   -1.274607    1.366387
  O     -0.081506   -1.510417   -0.211532
  O      2.076349   -2.143948   -0.300857
  O      2.886740    0.434037    0.535198
  O      1.061259    2.460852   -0.357888
  O     -1.764861    1.694050    0.013869
  O     -3.496548   -0.521719    0.417470
  H     -2.477327   -2.177286   -0.092820
  H     -2.515591   -0.929090   -1.358234
  H      1.735237   -3.040172   -0.150425
  H      3.233426    1.290610    0.239944
  H      0.663707    3.200211    0.122708
  H     -1.691452    2.502805   -0.513570
  H     -3.400010    0.444490    0.372023

 Total Charge           Charge          ....    0
 Multiplicity           Mult            ....    1
 Number of Electrons    NEL             ....   96
 Basis Dimension        Dim             ....  192

ORBITAL ENERGIES
----------------

  NO   OCC          E(Eh)            E(eV)
   0   2.0000     -18.783580      -511.1272
   1   2.0000     -18.774385      -510.8770
   2   2.0000     -18.773633      -510.8565
   3   2.0000     -18.756148      -510.3807
   4   2.0000     -18.748335      -510.1681
   5   2.0000     -18.733005      -509.7510
   6   2.0000      -9.987040      -271.7612
   7   2.0000      -9.951139      -270.7842
   8   2.0000      -9.948224      -270.7049
   9   2.0000      -9.945435      -270.6290
  10   2.0000      -9.941777      -270.5295
  11   2.0000      -9.926103      -270.1030
  12   2.0000      -0.984575       -26.7917
  13   2.0000      -0.963529       -26.2189
  14   2.0000      -0.946228       -25.7482
  15   2.0000      -0.923709       -25.1354
  16   2.0000      -0.916221       -24.9316
  17   2.0000      -0.908396       -24.7187
  18   2.0000      -0.712991       -19.4015
  19   2.0000      -0.691502       -18.8167
  20   2.0000      -0.616101       -16.7650
  21   2.0000      -0.590436       -16.0666
  22   2.0000      -0.555552       -15.1173
  23   2.0000      -0.528924       -14.3928
  24   2.0000      -0.500556       -13.6208
  25   2.0000      -0.499724       -13.5982
  26   2.0000      -0.482922       -13.1410
  27   2.0000      -0.472049       -12.8451
  28   2.0000      -0.457991       -12.4626
  29   2.0000      -0.433054       -11.7840
  30   2.0000      -0.417919       -11.3722
  31   2.0000      -0.406493       -11.0612
  32   2.0000      -0.384917       -10.4741
  33   2.0000      -0.375935       -10.2297
  34   2.0000      -0.363667        -9.8959
  35   2.0000      -0.355097        -9.6627
  36   2.0000      -0.331755        -9.0275
  37   2.0000      -0.313564        -8.5325
  38   2.0000      -0.308256        -8.3881
  39   2.0000      -0.293603        -7.9893
  40   2.0000      -0.283060        -7.7025
  41   2.0000      -0.273123        -7.4321
  42   2.0000      -0.267534        -7.2800
  43   2.0000      -0.245956        -6.6928
  44   2.0000      -0.238898        -6.5007
  45   2.0000      -0.218267        -5.9393
  46   2.0000      -0.212312        -5.7773
  47   2.0000      -0.205738        -5.5984
  48   0.0000      -0.014437        -0.3929
  49   0.0000       0.025460         0.6928
  50   0.0000       0.039344         1.0706
  51   0.0000       0.043020         1.1706
  52   0.0000       0.056214         1.5297

MULLIKEN ATOMIC CHARGES
-----------------------
   0 C :    0.117227
   1 C :   -0.043241
   2 H :    0.061559
   3 C :    0.063351
   4 H :    0.062375
   5 C :    0.045672
   6 H :    0.056640
   7 C :    0.041776
   8 H :    0.065373
   9 C :    0.204406
  10 H :    0.041446
  11 O :   -0.309384
  12 O :   -0.369742
  13 O :   -0.410962
  14 O :   -0.418393
  15 O :   -0.426020
  16 O :   -0.447671
  17 H :    0.088512
  18 H :    0.060728
  19 H :    0.306736
  20 H :    0.303371
  21 H :    0.303187
  22 H :    0.305087
  23 H :    0.297968
Sum of atomic charges:   -0.0000000

LOEWDIN ATOMIC CHARGES
----------------------
   0 C :   -0.117783
   1 C :   -0.069753
   2 H :    0.105083
   3 C :   -0.081792
   4 H :    0.108169
   5 C :   -0.088500
   6 H :    0.107346
   7 C :   -0.077171
   8 H :    0.112235
   9 C :    0.011032
  10 H :    0.083537
  11 O :   -0.150881
  12 O :   -0.286462
  13 O :   -0.313062
  14 O :   -0.322721
  15 O :   -0.313502
  16 O :   -0.342345
  17 H :    0.115847
  18 H :    0.096089
  19 H :    0.290761
  20 H :    0.287031
  21 H :    0.287685
  22 H :    0.288303
  23 H :    0.270855

  Mayer bond orders larger than 0.100000
B(  0-C ,  1-C ) :   1.0270 B(  0-C , 16-O ) :   1.0869 B(  0-C , 17-H ) :   0.9203
B(  0-C , 18-H ) :   0.9059 B(  1-C ,  2-H ) :   0.8802 B(  1-C ,  3-C ) :   1.0124
B(  1-C , 11-O ) :   0.9922 B(  3-C ,  4-H ) :   0.8717 B(  3-C ,  5-C ) :   0.9792
B(  3-C , 15-O ) :   1.0238 B(  5-C ,  6-H ) :   0.8793 B(  5-C ,  7-C ) :   1.0069
B(  5-C , 14-O ) :   1.0867 B(  7-C ,  8-H ) :   0.8670 B(  7-C ,  9-C ) :   0.9968
B(  7-C , 13-O ) :   1.0756 B(  9-C , 10-H ) :   0.8848 B(  9-C , 11-O ) :   1.0061
B(  9-C , 12-O ) :   1.1981 B( 12-O , 19-H ) :   0.8404 B( 13-O , 20-H ) :   0.8407
B( 14-O , 21-H ) :   0.8444 B( 15-O , 22-H ) :   0.8364 B( 16-O , 23-H ) :   0.8228

Dispersion correction           -0.023774863
FINAL SINGLE POINT ENERGY      -685.697970494313

DIPOLE MOMENT
-------------

Method             : SCF
Type of density    : Electron Density
Multiplicity       :   1
Irrep              :   0
Energy             :  -685.8280647512830228 Eh
Relativity type    :
Basis              : AO
                                X                 Y                 Z
Electronic contribution:      2.410516606      -0.327034028      -0.047925322
Nuclear contribution   :     -2.386725657       1.596104608      -0.090981482
                        -----------------------------------------
Total Dipole Moment    :      0.023790949       1.269070580      -0.138906804
                        -----------------------------------------
Magnitude (a.u.)       :      1.276871664
Magnitude (Debye)      :      3.245549843

Rotational constants in cm-1:             0.043395             0.024459             0.016480
Rotational constants in MHz :          1300.960550           733.274430           494.066537

                             ****ORCA TERMINATED NORMALLY****
TOTAL RUN TIME: 0 days 0 hours 0 minutes 11 seconds 441 msec
