                         Program Version 6.0.0  -   RELEASE  -
|  1> ! pbe def2-sv(p) def2/J RI DEFGRID1 loosescf d4 GCP(DFT/SV(P)) printgap
|  2> %output
|  3>     printlevel normal
|  4> end
|  5> * xyz 0 1
|  6> C -2.4743171771 -0.4646103622 -0.1976836359
|  7> C -1.0354775348 -0.1956961344 0.2484605254
|  8> H -0.9621243978 -0.3521166951 1.3366301912
|  9> C -0.6093073809 1.2534029735 -0.0726509645
| 10> H -1.1634154959 1.6137463826 -0.9455743227
| 11> C 0.8891319176 1.2971419458 -0.4385584453
| 12> H 1.2620430871 2.2994491715 -0.1752260119
| 13> C 1.651040189 0.2619825638 0.4069769415
| 14> H 2.7110751323 0.264119924 0.122357894
| 15> C 1.1136075218 -1.1538993039 0.0929539784
| 16> H 1.1209832297 -1.7454989298 1.0372027822
| 17> O -0.2018481304 -1.1392195395 -0.4059539649
| 18> O 1.9421862792 -1.7318674457 -0.8509858012
| 19> O 1.4775103233 0.6179150153 1.7554058014
| 20> O 1.0059740065 1.0638865811 -1.8146515208
| 21> O -0.9232853318 2.1251281463 0.9771062289
| 22> O -2.9579442369 -1.7029374238 0.2545304964
| 23> H -2.515478703 -0.403701978 -1.2918450682
| 24> H -3.1221092314 0.2995425287 0.2348095625
| 25> H 1.4665074852 -2.4448260385 -1.304224147
| 26> H 2.1400438291 0.1808502671 2.3091345572
| 27> H 1.9385026958 1.0669976762 -2.0752688245
| 28> H -0.3669007656 1.9038868423 1.7417834963
| 29> H -2.4022639641 -2.4024484833 -0.1183502492
| 30> *
| 31>
| 32>                          ****END OF INPUT****

CARTESIAN COORDINATES (ANGSTROEM)
---------------------------------
  C     -2.474317   -0.464610   -0.197684
  C     -1.035478   -0.195696    0.248461
  H     -0.962124   -0.352117    1.336630
  C     -0.609307    1.253403   -0.072651
  H     -1.163415    1.613746   -0.945574
  C      0.889132    1.297142   -0.438558
  H      1.262043    2.299449   -0.175226
  C      1.651040    0.261983    0.406977
  H      2.711075    0.264120    0.122358
  C      1.113608   -1.153899    0.092954
  H      1.120983   -1.745499    1.037203
  O     -0.201848   -1.139220   -0.405954
  O      1.942186   -1.731867   -0.850986
  O      1.477510    0.617915    1.755406
  O      1.005974    1.063887   -1.814652
  O     -0.923285    2.125128    0.977106
  O     -2.957944   -1.702937    0.254530
  H     -2.515479   -0.403702   -1.291845
  H     -3.122109    0.299543    0.234810
  H      1.466507   -2.444826   -1.304224
  H      2.140044    0.180850    2.309135
  H      1.938503    1.066998   -2.075269
  H     -0.366901    1.903887    1.741783
  H     -2.402264   -2.402448   -0.118350

 Total Charge           Charge          ....    0
 Multiplicity           Mult            ....    1
 Number of Electrons    NEL             ....   96
 Basis Dimension        Dim             ....  192

ORBITAL ENERGIES
----------------

  NO   OCC          E(Eh)            E(eV)
   0   2.0000     -18.781525      -511.0713
   1   2.0000     -18.770681      -510.7762
   2   2.0000     -18.766001      -510.6488
   3   2.0000     -18.754002      -510.3223
   4   2.0000     -18.741139      -509.9723
   5   2.0000     -18.737806      -509.8816
   6   2.0000      -9.991998      -271.8961
   7   2.0000      -9.952552      -270.8227
   8   2.0000      -9.943139      -270.5666
   9   2.0000      -9.935275      -270.3526
  10   2.0000      -9.934859      -270.3412
  11   2.0000      -9.924776      -270.0669
  12   2.0000      -0.988322       -26.8936
  13   2.0000      -0.954699       -25.9787
  14   2.0000      -0.933734       -25.4082
  15   2.0000      -0.925751       -25.1910
  16   2.0000      -0.917264       -24.9600
  17   2.0000      -0.908531       -24.7224
  18   2.0000      -0.697945       -18.9920
  19   2.0000      -0.689472       -18.7615
  20   2.0000      -0.621315       -16.9069
  21   2.0000      -0.585003       -15.9187
  22   2.0000      -0.562166       -15.2973
  23   2.0000      -0.525726       -14.3057
  24   2.0000      -0.509813       -13.8727
  25   2.0000      -0.479123       -13.0376
  26   2.0000      -0.474191       -12.9034
  27   2.0000      -0.470676       -12.8077
  28   2.0000      -0.455264       -12.3884
  29   2.0000      -0.441620       -12.0171
  30   2.0000      -0.412435       -11.2229
  31   2.0000      -0.382852       -10.4179
  32   2.0000      -0.378403       -10.2969
  33   2.0000      -0.374910       -10.2018
  34   2.0000      -0.359337        -9.7780
  35   2.0000      -0.353396        -9.6164
  36   2.0000      -0.333005        -9.0615
  37   2.0000      -0.317854        -8.6493
  38   2.0000      -0.313499        -8.5307
  39   2.0000      -0.296498        -8.0681
  40   2.0000      -0.275316        -7.4917
  41   2.0000      -0.266275        -7.2457
  42   2.0000      -0.252006        -6.8574
  43   2.0000      -0.245468        -6.6795
  44   2.0000      -0.242066        -6.5869
  45   2.0000      -0.218475        -5.9450
  46   2.0000      -0.208949        -5.6858
  47   2.0000      -0.196370        -5.3435
  48   0.0000       0.001834         0.0499
  49   0.0000       0.018945         0.5155
  50   0.0000       0.036041         0.9807
  51   0.0000       0.047562         1.2942
  52   0.0000       0.063055         1.7158

MULLIKEN ATOMIC CHARGES
-----------------------
   0 C :    0.063199
   1 C :    0.013008
   2 H :    0.049233
   3 C :    0.071760
   4 H :    0.072922
   5 C :    0.059620
   6 H :    0.069252
   7 C :   -0.052972
   8 H :    0.074561
   9 C :    0.255397
  10 H :    0.033294
  11 O :   -0.326468
  12 O :   -0.394355
  13 O :   -0.420813
  14 O :   -0.401688
  15 O :   -0.425872
  16 O :   -0.434750
  17 H :    0.078616
  18 H :    0.098428
  19 H :    0.305941
  20 H :    0.315024
  21 H :    0.299102
  22 H :    0.304030
  23 H :    0.293532
Sum of atomic charges:    0.0000000

LOEWDIN ATOMIC CHARGES
----------------------
   0 C :   -0.126076
   1 C :   -0.078567
   2 H :    0.101607
   3 C :   -0.061769
   4 H :    0.121218
   5 C :   -0.070249
   6 H :    0.103335
   7 C :   -0.096020
   8 H :    0.107904
   9 C :    0.005231
  10 H :    0.072357
  11 O :   -0.159567
  12 O :   -0.303538
  13 O :   -0.310847
  14 O :   -0.308762
  15 O :   -0.311657
  16 O :   -0.337062
  17 H :    0.102947
  18 H :    0.123181
  19 H :    0.290013
  20 H :    0.295389
  21 H :    0.284852
  22 H :    0.276745
  23 H :    0.279334

  Mayer bond orders larger than 0.100000
B(  0-C ,  1-C ) :   1.0507 B(  0-C , 16-O ) :   1.0744 B(  0-C , 17-H ) :   0.9078
B(  0-C , 18-H ) :   0.9177 B(  1-C ,  2-H ) :   0.8647 B(  1-C ,  3-C ) :   0.9719
B(  1-C , 11-O ) :   1.0021 B(  3-C ,  4-H ) :   0.8809 B(  3-C ,  5-C ) :   0.9851
B(  3-C , 15-O ) :   1.0463 B(  5-C ,  6-H ) :   0.8950 B(  5-C ,  7-C ) :   1.0218
B(  5-C , 14-O ) :   1.0781 B(  7-C ,  8-H ) :   0.8982 B(  7-C ,  9-C ) :   0.9117
B(  7-C , 13-O ) :   1.0435 B(  9-C , 10-H ) :   0.9092 B(  9-C , 11-O ) :   1.0319
B(  9-C , 12-O ) :   1.1574 B( 12-O , 19-H ) :   0.8375 B( 13-O , 20-H ) :   0.8394
B( 14-O , 21-H ) :   0.8426 B( 15-O , 22-H ) :   0.8300 B( 16-O , 23-H ) :   0.8494

Dispersion correction           -0.024727136
FINAL SINGLE POINT ENERGY      -685.690271094054

DIPOLE MOMENT
-------------

Method             : SCF
Type of density    : Electron Density
Multiplicity       :   1
Irrep              :   0
Energy             :  -685.8201760275751440 Eh
Relativity type    :
Basis              : AO
                                X                 Y                 Z
Electronic contribution:      1.464653844      -0.861679320      -0.608796157
Nuclear contribution   :      0.105330920       0.251324142       0.816296908
                        -----------------------------------------
Total Dipole Moment    :      1.569984764      -0.610355178       0.207500751
                        -----------------------------------------
Magnitude (a.u.)       :      1.697186544
Magnitude (Debye)      :      4.313905363

Rotational constants in cm-1:             0.037987             0.027367             0.021827
Rotational constants in MHz :          1138.813909           820.438414           654.369866

                             ****ORCA TERMINATED NORMALLY****
TOTAL RUN TIME: 0 days 0 hours 0 minutes 11 seconds 769 msec
