                         Program Version 6.0.0  -   RELEASE  -
|  1> ! pbe def2-sv(p) def2/J RI DEFGRID1 loosescf d4 GCP(DFT/SV(P)) printgap
|  2> %output
|  3>     printlevel normal
|  4> end
|  5> * xyz 0 1
|  6> C -2.5309301829 -0.6404948259 -0.145391532
|  7> C -1.1937872469 -0.4753640237 0.5934300585
|  8> H -1.2945784764 -0.8504138979 1.6243137087
|  9> C -0.7227502151 0.9940981874 0.703116014
| 10> H -1.5823555715 1.6529927756 0.5335952906
| 11> C 0.3508591757 1.3047421302 -0.3548612624
| 12> H 0.7562525327 2.3102079662 -0.1728625771
| 13> C 1.5479429786 0.3248648619 -0.2016797388
| 14> H 2.0077094054 0.2089442468 -1.1890132634
| 15> C 1.0681471409 -1.0531823821 0.3093295451
| 16> H 1.1088408256 -1.0627677356 1.4109731013
| 17> O -0.2611208552 -1.2780764389 -0.1120926426
| 18> O 1.852003906 -2.1083150911 -0.106432592
| 19> O 2.5506896721 0.8584674023 0.6231769659
| 20> O -0.1660461217 1.3226155472 -1.6576642312
| 21> O -0.1967826916 1.1787951659 2.0025581377
| 22> O -2.3953415283 -0.3857481178 -1.5242618816
| 23> H -3.2590489079 0.0744169884 0.2403916531
| 24> H -2.9005883899 -1.6552610652 0.0226574155
| 25> H 1.8005339464 -2.2007694068 -1.0705468631
| 26> H 2.2068164975 0.9383766835 1.5265339576
| 27> H -0.954507719 0.7419842149 -1.7216394248
| 28> H -0.2563714647 2.1113510959 2.2530225407
| 29> H -1.9497005549 -1.1429893539 -1.9317437404
| 30> *
| 31>
| 32>                          ****END OF INPUT****

CARTESIAN COORDINATES (ANGSTROEM)
---------------------------------
  C     -2.530930   -0.640495   -0.145392
  C     -1.193787   -0.475364    0.593430
  H     -1.294578   -0.850414    1.624314
  C     -0.722750    0.994098    0.703116
  H     -1.582356    1.652993    0.533595
  C      0.350859    1.304742   -0.354861
  H      0.756253    2.310208   -0.172863
  C      1.547943    0.324865   -0.201680
  H      2.007709    0.208944   -1.189013
  C      1.068147   -1.053182    0.309330
  H      1.108841   -1.062768    1.410973
  O     -0.261121   -1.278076   -0.112093
  O      1.852004   -2.108315   -0.106433
  O      2.550690    0.858467    0.623177
  O     -0.166046    1.322616   -1.657664
  O     -0.196783    1.178795    2.002558
  O     -2.395342   -0.385748   -1.524262
  H     -3.259049    0.074417    0.240392
  H     -2.900588   -1.655261    0.022657
  H      1.800534   -2.200769   -1.070547
  H      2.206816    0.938377    1.526534
  H     -0.954508    0.741984   -1.721639
  H     -0.256371    2.111351    2.253023
  H     -1.949701   -1.142989   -1.931744

 Total Charge           Charge          ....    0
 Multiplicity           Mult            ....    1
 Number of Electrons    NEL             ....   96
 Basis Dimension        Dim             ....  192

ORBITAL ENERGIES
----------------

  NO   OCC          E(Eh)            E(eV)
   0   2.0000     -18.786942      -511.2187
   1   2.0000     -18.777007      -510.9483
   2   2.0000     -18.775920      -510.9187
   3   2.0000     -18.756323      -510.3855
   4   2.0000     -18.738767      -509.9078
   5   2.0000     -18.729972      -509.6684
   6   2.0000      -9.982999      -271.6512
   7   2.0000      -9.956310      -270.9250
   8   2.0000      -9.955795      -270.9109
   9   2.0000      -9.954786      -270.8835
  10   2.0000      -9.932593      -270.2796
  11   2.0000      -9.927659      -270.1453
  12   2.0000      -0.987933       -26.8830
  13   2.0000      -0.958907       -26.0932
  14   2.0000      -0.951305       -25.8863
  15   2.0000      -0.920014       -25.0349
  16   2.0000      -0.916104       -24.9285
  17   2.0000      -0.904681       -24.6176
  18   2.0000      -0.709960       -19.3190
  19   2.0000      -0.678984       -18.4761
  20   2.0000      -0.625722       -17.0268
  21   2.0000      -0.595050       -16.1921
  22   2.0000      -0.571876       -15.5615
  23   2.0000      -0.531956       -14.4752
  24   2.0000      -0.504078       -13.7167
  25   2.0000      -0.494656       -13.4603
  26   2.0000      -0.484551       -13.1853
  27   2.0000      -0.474979       -12.9248
  28   2.0000      -0.449212       -12.2237
  29   2.0000      -0.436594       -11.8803
  30   2.0000      -0.408663       -11.1203
  31   2.0000      -0.399604       -10.8738
  32   2.0000      -0.396524       -10.7900
  33   2.0000      -0.385659       -10.4943
  34   2.0000      -0.358579        -9.7574
  35   2.0000      -0.350202        -9.5295
  36   2.0000      -0.335984        -9.1426
  37   2.0000      -0.315820        -8.5939
  38   2.0000      -0.306912        -8.3515
  39   2.0000      -0.301091        -8.1931
  40   2.0000      -0.291399        -7.9294
  41   2.0000      -0.277238        -7.5440
  42   2.0000      -0.253916        -6.9094
  43   2.0000      -0.251816        -6.8523
  44   2.0000      -0.240622        -6.5476
  45   2.0000      -0.233948        -6.3661
  46   2.0000      -0.217416        -5.9162
  47   2.0000      -0.184868        -5.0305
  48   0.0000       0.001726         0.0470
  49   0.0000       0.009528         0.2593
  50   0.0000       0.038824         1.0564
  51   0.0000       0.049777         1.3545
  52   0.0000       0.055996         1.5237

MULLIKEN ATOMIC CHARGES
-----------------------
   0 C :    0.052661
   1 C :    0.026066
   2 H :    0.081254
   3 C :   -0.057151
   4 H :    0.079710
   5 C :    0.086664
   6 H :    0.052666
   7 C :    0.080167
   8 H :    0.053778
   9 C :    0.182185
  10 H :    0.053565
  11 O :   -0.322587
  12 O :   -0.374098
  13 O :   -0.424692
  14 O :   -0.431698
  15 O :   -0.416320
  16 O :   -0.428931
  17 H :    0.102049
  18 H :    0.100377
  19 H :    0.300087
  20 H :    0.290256
  21 H :    0.283657
  22 H :    0.310977
  23 H :    0.319358
Sum of atomic charges:   -0.0000000

LOEWDIN ATOMIC CHARGES
----------------------
   0 C :   -0.122502
   1 C :   -0.072179
   2 H :    0.115791
   3 C :   -0.083078
   4 H :    0.108190
   5 C :   -0.078854
   6 H :    0.105208
   7 C :   -0.089898
   8 H :    0.116756
   9 C :   -0.004825
  10 H :    0.098265
  11 O :   -0.169622
  12 O :   -0.285559
  13 O :   -0.314034
  14 O :   -0.335686
  15 O :   -0.317662
  16 O :   -0.309039
  17 H :    0.120819
  18 H :    0.113457
  19 H :    0.285462
  20 H :    0.271961
  21 H :    0.259778
  22 H :    0.293775
  23 H :    0.293478

  Mayer bond orders larger than 0.100000
B(  0-C ,  1-C ) :   1.0352 B(  0-C , 16-O ) :   1.0364 B(  0-C , 17-H ) :   0.9238
B(  0-C , 18-H ) :   0.9244 B(  1-C ,  2-H ) :   0.8841 B(  1-C ,  3-C ) :   0.9476
B(  1-C , 11-O ) :   1.0188 B(  3-C ,  4-H ) :   0.9030 B(  3-C ,  5-C ) :   1.0086
B(  3-C , 15-O ) :   1.0411 B(  5-C ,  6-H ) :   0.8892 B(  5-C ,  7-C ) :   0.9183
B(  5-C , 14-O ) :   1.0934 B(  7-C ,  8-H ) :   0.8771 B(  7-C ,  9-C ) :   0.9854
B(  7-C , 13-O ) :   1.0380 B(  9-C , 10-H ) :   0.8744 B(  9-C , 11-O ) :   1.0028
B(  9-C , 12-O ) :   1.1521 B( 12-O , 19-H ) :   0.8440 B( 13-O , 20-H ) :   0.8377
B( 14-O , 21-H ) :   0.7794 B( 15-O , 22-H ) :   0.8436 B( 16-O , 21-H ) :   0.1600
B( 16-O , 23-H ) :   0.8275

Dispersion correction           -0.025358126
FINAL SINGLE POINT ENERGY      -685.693300316307

DIPOLE MOMENT
-------------

Method             : SCF
Type of density    : Electron Density
Multiplicity       :   1
Irrep              :   0
Energy             :  -685.8259471579107185 Eh
Relativity type    :
Basis              : AO
                                X                 Y                 Z
Electronic contribution:      2.779808085      -1.120252531      -0.909357319
Nuclear contribution   :     -4.029584005       1.050340136       1.419872046
                        -----------------------------------------
Total Dipole Moment    :     -1.249775920      -0.069912395       0.510514727
                        -----------------------------------------
Magnitude (a.u.)       :      1.351833155
Magnitude (Debye)      :      3.436086811

Rotational constants in cm-1:             0.041114             0.027272             0.023821
Rotational constants in MHz :          1232.562960           817.587037           714.150016

                             ****ORCA TERMINATED NORMALLY****
TOTAL RUN TIME: 0 days 0 hours 0 minutes 12 seconds 299 msec
