                         Program Version 6.0.0  -   RELEASE  -
|  1> ! pbe def2-sv(p) def2/J RI DEFGRID1 loosescf d4 GCP(DFT/SV(P)) printgap
|  2> %output
|  3>     printlevel normal
|  4> end
|  5> * xyz 0 1
|  6> C -3.6538245697 -0.0267928525 2.08731e-05
|  7> C -2.22318779 0.5038157132 -2.52567e-05
|  8> C -1.2448347701 -0.652217554 -1.50669e-05
|  9> I 0.8238371442 0.0225612704 8.715e-07
| 10> H -4.3562309941 0.8016366136 -1.75104e-05
| 11> H -3.8369235856 -0.6351030015 -0.8825154494
| 12> H -3.836754018 -0.6348583859 0.8827375242
| 13> H -2.0626468423 1.1263818842 0.8825318099
| 14> H -2.0627929608 1.1261263424 -0.8827663224
| 15> H -1.3525214387 -1.2686744891 -0.8886467769
| 16> H -1.3523585216 -1.2684390447 0.8887987702
| 17> *
| 18>
| 19>                          ****END OF INPUT****

CARTESIAN COORDINATES (ANGSTROEM)
---------------------------------
  C     -3.653825   -0.026793    0.000021
  C     -2.223188    0.503816   -0.000025
  C     -1.244835   -0.652218   -0.000015
  I      0.823837    0.022561    0.000001
  H     -4.356231    0.801637   -0.000018
  H     -3.836924   -0.635103   -0.882515
  H     -3.836754   -0.634858    0.882738
  H     -2.062647    1.126382    0.882532
  H     -2.062793    1.126126   -0.882766
  H     -1.352521   -1.268674   -0.888647
  H     -1.352359   -1.268439    0.888799

 Total Charge           Charge          ....    0
 Multiplicity           Mult            ....    1
 Number of Electrons    NEL             ....   50
 Basis Dimension        Dim             ....   82

ORBITAL ENERGIES
----------------

  NO   OCC          E(Eh)            E(eV)
   0   2.0000      -9.935716      -270.3646
   1   2.0000      -9.900829      -269.4152
   2   2.0000      -9.886374      -269.0219
   3   2.0000      -6.593207      -179.4103
   4   2.0000      -4.664984      -126.9407
   5   2.0000      -4.648267      -126.4858
   6   2.0000      -4.647984      -126.4781
   7   2.0000      -1.801100       -49.0104
   8   2.0000      -1.796707       -48.8909
   9   2.0000      -1.796472       -48.8845
  10   2.0000      -1.783000       -48.5179
  11   2.0000      -1.782984       -48.5175
  12   2.0000      -0.731403       -19.9025
  13   2.0000      -0.653160       -17.7734
  14   2.0000      -0.584642       -15.9089
  15   2.0000      -0.533603       -14.5201
  16   2.0000      -0.437214       -11.8972
  17   2.0000      -0.394711       -10.7406
  18   2.0000      -0.367952       -10.0125
  19   2.0000      -0.365411        -9.9433
  20   2.0000      -0.320072        -8.7096
  21   2.0000      -0.306983        -8.3534
  22   2.0000      -0.294063        -8.0019
  23   2.0000      -0.217534        -5.9194
  24   2.0000      -0.217077        -5.9070
  25   0.0000      -0.056256        -1.5308
  26   0.0000       0.037658         1.0247
  27   0.0000       0.070442         1.9168
  28   0.0000       0.072647         1.9768
  29   0.0000       0.088220         2.4006

MULLIKEN ATOMIC CHARGES
-----------------------
   0 C :   -0.285571
   1 C :   -0.159235
   2 C :   -0.363958
   3 I :   -0.041943
   4 H :    0.116274
   5 H :    0.105742
   6 H :    0.105730
   7 H :    0.109216
   8 H :    0.109203
   9 H :    0.152271
  10 H :    0.152272
Sum of atomic charges:   -0.0000000

LOEWDIN ATOMIC CHARGES
----------------------
   0 C :   -0.338504
   1 C :   -0.252659
   2 C :   -0.331057
   3 I :    0.047415
   4 H :    0.126801
   5 H :    0.120215
   6 H :    0.120212
   7 H :    0.123177
   8 H :    0.123175
   9 H :    0.130615
  10 H :    0.130611

  Mayer bond orders larger than 0.100000
B(  0-C ,  1-C ) :   1.1309 B(  0-C ,  4-H ) :   0.9491 B(  0-C ,  5-H ) :   0.9556
B(  0-C ,  6-H ) :   0.9556 B(  1-C ,  2-C ) :   1.0938 B(  1-C ,  7-H ) :   0.9282
B(  1-C ,  8-H ) :   0.9282 B(  2-C ,  3-I ) :   1.0419 B(  2-C ,  9-H ) :   0.9236
B(  2-C , 10-H ) :   0.9236

Dispersion correction           -0.007677954
FINAL SINGLE POINT ENERGY      -415.906229186134

DIPOLE MOMENT
-------------

Method             : SCF
Type of density    : Electron Density
Multiplicity       :   1
Irrep              :   0
Energy             :  -415.9447375187506850 Eh
Relativity type    :
Basis              : AO
                                X                 Y                 Z
Electronic contribution:     76.688660690       2.212265248      -0.000026242
Nuclear contribution   :    -77.466331380      -2.343279444       0.000051271
                        -----------------------------------------
Total Dipole Moment    :     -0.777670690      -0.131014196       0.000025028
                        -----------------------------------------
Magnitude (a.u.)       :      0.788629458
Magnitude (Debye)      :      2.004536779

Rotational constants in cm-1:             0.833433             0.043196             0.042037
Rotational constants in MHz :         24985.697562          1294.971702          1260.226108

                             ****ORCA TERMINATED NORMALLY****
TOTAL RUN TIME: 0 days 0 hours 0 minutes 11 seconds 608 msec
