                         Program Version 6.0.0  -   RELEASE  -
|  1> ! pbe def2-sv(p) def2/J RI DEFGRID1 loosescf d4 GCP(DFT/SV(P)) printgap
|  2> %output
|  3>     printlevel normal
|  4> end
|  5> * xyz 0 1
|  6> C -2.4210845432 -0.6961178803 -0.0087503559
|  7> C -0.9978239543 -0.2640566892 0.3554253219
|  8> H -0.9807007813 0.0631602703 1.4055854699
|  9> C -0.5073425852 0.8796743408 -0.5327190437
| 10> H -0.3847714126 0.5084494592 -1.5603999822
| 11> C 0.8685025568 1.3466639948 -0.0301480292
| 12> H 0.6875705693 2.0042239693 0.8353534046
| 13> C 1.7196551951 0.1490884841 0.4578706943
| 14> H 2.7378467098 0.2535574129 0.0582293903
| 15> C 1.1856631851 -1.1807589746 -0.0918290849
| 16> H 1.7300016494 -2.0004678691 0.4045326052
| 17> O -0.1616457564 -1.4122053644 0.219260098
| 18> O 1.4125318811 -1.1946418229 -1.4670018417
| 19> O 1.7260311823 0.0337101393 1.858133714
| 20> O 1.4677872934 2.0608126768 -1.0818115254
| 21> O -1.4460815051 1.9226901227 -0.4890440381
| 22> O -2.9202934887 -1.6691369102 0.8713159817
| 23> H -2.4252775715 -1.0693341241 -1.0412091211
| 24> H -3.0822402398 0.1680591617 0.0651239614
| 25> H 1.1586719035 -2.0556665037 -1.8336226595
| 26> H 2.2542680369 0.7441396355 2.2515040183
| 27> H 2.3012318579 2.459419776 -0.7934983179
| 28> H -1.142942449 2.6328542743 -1.0746217836
| 29> H -2.2805738656 -2.3950860637 0.912416724
| 30> *
| 31>
| 32>                          ****END OF INPUT****

CARTESIAN COORDINATES (ANGSTROEM)
---------------------------------
  C     -2.421085   -0.696118   -0.008750
  C     -0.997824   -0.264057    0.355425
  H     -0.980701    0.063160    1.405585
  C     -0.507343    0.879674   -0.532719
  H     -0.384771    0.508449   -1.560400
  C      0.868503    1.346664   -0.030148
  H      0.687571    2.004224    0.835353
  C      1.719655    0.149088    0.457871
  H      2.737847    0.253557    0.058229
  C      1.185663   -1.180759   -0.091829
  H      1.730002   -2.000468    0.404533
  O     -0.161646   -1.412205    0.219260
  O      1.412532   -1.194642   -1.467002
  O      1.726031    0.033710    1.858134
  O      1.467787    2.060813   -1.081812
  O     -1.446082    1.922690   -0.489044
  O     -2.920293   -1.669137    0.871316
  H     -2.425278   -1.069334   -1.041209
  H     -3.082240    0.168059    0.065124
  H      1.158672   -2.055667   -1.833623
  H      2.254268    0.744140    2.251504
  H      2.301232    2.459420   -0.793498
  H     -1.142942    2.632854   -1.074622
  H     -2.280574   -2.395086    0.912417

 Total Charge           Charge          ....    0
 Multiplicity           Mult            ....    1
 Number of Electrons    NEL             ....   96
 Basis Dimension        Dim             ....  192

ORBITAL ENERGIES
----------------

  NO   OCC          E(Eh)            E(eV)
   0   2.0000     -18.767321      -510.6848
   1   2.0000     -18.764367      -510.6044
   2   2.0000     -18.762298      -510.5481
   3   2.0000     -18.759676      -510.4767
   4   2.0000     -18.749557      -510.2014
   5   2.0000     -18.729995      -509.6691
   6   2.0000      -9.987877      -271.7840
   7   2.0000      -9.949627      -270.7431
   8   2.0000      -9.942837      -270.5583
   9   2.0000      -9.937011      -270.3998
  10   2.0000      -9.933663      -270.3087
  11   2.0000      -9.915923      -269.8260
  12   2.0000      -0.980714       -26.6866
  13   2.0000      -0.945343       -25.7241
  14   2.0000      -0.936589       -25.4859
  15   2.0000      -0.923816       -25.1383
  16   2.0000      -0.915801       -24.9202
  17   2.0000      -0.901251       -24.5243
  18   2.0000      -0.703887       -19.1537
  19   2.0000      -0.689287       -18.7565
  20   2.0000      -0.618139       -16.8204
  21   2.0000      -0.578350       -15.7377
  22   2.0000      -0.561120       -15.2689
  23   2.0000      -0.524788       -14.2802
  24   2.0000      -0.497766       -13.5449
  25   2.0000      -0.491429       -13.3725
  26   2.0000      -0.478020       -13.0076
  27   2.0000      -0.451891       -12.2966
  28   2.0000      -0.448555       -12.2058
  29   2.0000      -0.431865       -11.7516
  30   2.0000      -0.409357       -11.1392
  31   2.0000      -0.384590       -10.4652
  32   2.0000      -0.379809       -10.3351
  33   2.0000      -0.369057       -10.0426
  34   2.0000      -0.359420        -9.7803
  35   2.0000      -0.346358        -9.4249
  36   2.0000      -0.332535        -9.0487
  37   2.0000      -0.326176        -8.8757
  38   2.0000      -0.297988        -8.1087
  39   2.0000      -0.293715        -7.9924
  40   2.0000      -0.271644        -7.3918
  41   2.0000      -0.263258        -7.1636
  42   2.0000      -0.246695        -6.7129
  43   2.0000      -0.243551        -6.6274
  44   2.0000      -0.225297        -6.1306
  45   2.0000      -0.223331        -6.0771
  46   2.0000      -0.209510        -5.7010
  47   2.0000      -0.200754        -5.4628
  48   0.0000       0.005162         0.1405
  49   0.0000       0.021358         0.5812
  50   0.0000       0.029881         0.8131
  51   0.0000       0.048013         1.3065
  52   0.0000       0.060003         1.6328

MULLIKEN ATOMIC CHARGES
-----------------------
   0 C :    0.097169
   1 C :    0.005969
   2 H :    0.066730
   3 C :    0.059262
   4 H :    0.066327
   5 C :    0.072778
   6 H :    0.040894
   7 C :    0.013436
   8 H :    0.058330
   9 C :    0.176234
  10 H :    0.063987
  11 O :   -0.328951
  12 O :   -0.383130
  13 O :   -0.409835
  14 O :   -0.410881
  15 O :   -0.412968
  16 O :   -0.436474
  17 H :    0.051318
  18 H :    0.098036
  19 H :    0.304152
  20 H :    0.304425
  21 H :    0.298529
  22 H :    0.307476
  23 H :    0.297184
Sum of atomic charges:   -0.0000000

LOEWDIN ATOMIC CHARGES
----------------------
   0 C :   -0.124920
   1 C :   -0.063769
   2 H :    0.112144
   3 C :   -0.073208
   4 H :    0.111566
   5 C :   -0.082681
   6 H :    0.099181
   7 C :   -0.087667
   8 H :    0.106769
   9 C :    0.000411
  10 H :    0.098701
  11 O :   -0.151156
  12 O :   -0.309196
  13 O :   -0.310617
  14 O :   -0.318478
  15 O :   -0.315022
  16 O :   -0.337927
  17 H :    0.093916
  18 H :    0.122009
  19 H :    0.287108
  20 H :    0.288668
  21 H :    0.283580
  22 H :    0.290456
  23 H :    0.280133

  Mayer bond orders larger than 0.100000
B(  0-C ,  1-C ) :   1.0640 B(  0-C , 16-O ) :   1.0788 B(  0-C , 17-H ) :   0.9040
B(  0-C , 18-H ) :   0.9103 B(  1-C ,  2-H ) :   0.8681 B(  1-C ,  3-C ) :   1.0505
B(  1-C , 11-O ) :   0.9615 B(  3-C ,  4-H ) :   0.8300 B(  3-C ,  5-C ) :   1.0937
B(  3-C , 15-O ) :   1.0654 B(  5-C ,  6-H ) :   0.8659 B(  5-C ,  7-C ) :   0.9583
B(  5-C , 14-O ) :   1.0808 B(  7-C ,  8-H ) :   0.8738 B(  7-C ,  9-C ) :   1.0542
B(  7-C , 13-O ) :   1.0479 B(  9-C , 10-H ) :   0.8932 B(  9-C , 11-O ) :   1.0668
B(  9-C , 12-O ) :   1.1473 B( 12-O , 19-H ) :   0.8411 B( 13-O , 20-H ) :   0.8473
B( 14-O , 21-H ) :   0.8468 B( 15-O , 22-H ) :   0.8430 B( 16-O , 23-H ) :   0.8465

Dispersion correction           -0.024368004
FINAL SINGLE POINT ENERGY      -685.689416990256

DIPOLE MOMENT
-------------

Method             : SCF
Type of density    : Electron Density
Multiplicity       :   1
Irrep              :   0
Energy             :  -685.8186771520871616 Eh
Relativity type    :
Basis              : AO
                                X                 Y                 Z
Electronic contribution:      1.110140056      -0.730475402       0.129816349
Nuclear contribution   :      0.538811079       1.228274070      -0.349012424
                        -----------------------------------------
Total Dipole Moment    :      1.648951135       0.497798668      -0.219196075
                        -----------------------------------------
Magnitude (a.u.)       :      1.736343940
Magnitude (Debye)      :      4.413435555

Rotational constants in cm-1:             0.039952             0.025795             0.020848
Rotational constants in MHz :          1197.745218           773.323122           625.008814

                             ****ORCA TERMINATED NORMALLY****
TOTAL RUN TIME: 0 days 0 hours 0 minutes 11 seconds 830 msec
