                         Program Version 6.0.0  -   RELEASE  -
|  1> ! pbe def2-sv(p) def2/J RI DEFGRID1 loosescf d4 GCP(DFT/SV(P)) printgap
|  2> %output
|  3>     printlevel normal
|  4> end
|  5> * xyz 0 1
|  6> C -2.9841184908 0.074971849 0.5516008303
|  7> C -2.09331936 -0.0841134149 -0.6790478914
|  8> H -2.7279395861 -0.0092762765 -1.5687085128
|  9> C -1.3681796604 -1.4278507084 -0.7137850851
| 10> C -0.4125630339 -1.5856337668 0.463661106
| 11> C 0.5602053915 -0.4146077205 0.6788363903
| 12> H 0.8061160144 -0.3818701718 1.7476054518
| 13> C -0.0221679526 0.9413628807 0.3534380923
| 14> O 0.3623135667 1.9386937354 0.9411144647
| 15> C -1.0544751705 1.0380108963 -0.7355736041
| 16> C 1.9336682552 -0.598188215 -0.0312363086
| 17> C 1.924606999 -0.2864244405 -1.524823974
| 18> C 2.9971068215 0.2520025328 0.662513257
| 19> H -3.5822842803 0.9793000668 0.4664779796
| 20> H -3.6572985832 -0.7732270362 0.6483688973
| 21> H -2.3872729458 0.1554080222 1.4571832806
| 22> H -2.0978338624 -2.2391147437 -0.6825646029
| 23> H -0.8266528871 -1.5124293911 -1.6565246603
| 24> H -1.0067466175 -1.7020423672 1.371709726
| 25> H 0.1636971481 -2.5042892599 0.3399491435
| 26> H -1.5285978288 2.0197667763 -0.6695160404
| 27> H -0.5245696154 0.9861671204 -1.6889632425
| 28> H 2.2047262209 -1.6522003523 0.0955642872
| 29> H 1.7755373198 0.7781452334 -1.6933990332
| 30> H 1.152709293 -0.8448571569 -2.044722495
| 31> H 2.8851616707 -0.5613568021 -1.955304803
| 32> H 3.1332329863 -0.0626592358 1.6946960239
| 33> H 2.7045815242 1.3005289214 0.6643141166
| 34> H 3.9497335921 0.1610241236 0.146577882
| 35> *
| 36>
| 37>                          ****END OF INPUT****

CARTESIAN COORDINATES (ANGSTROEM)
---------------------------------
  C     -2.984118    0.074972    0.551601
  C     -2.093319   -0.084113   -0.679048
  H     -2.727940   -0.009276   -1.568709
  C     -1.368180   -1.427851   -0.713785
  C     -0.412563   -1.585634    0.463661
  C      0.560205   -0.414608    0.678836
  H      0.806116   -0.381870    1.747605
  C     -0.022168    0.941363    0.353438
  O      0.362314    1.938694    0.941114
  C     -1.054475    1.038011   -0.735574
  C      1.933668   -0.598188   -0.031236
  C      1.924607   -0.286424   -1.524824
  C      2.997107    0.252003    0.662513
  H     -3.582284    0.979300    0.466478
  H     -3.657299   -0.773227    0.648369
  H     -2.387273    0.155408    1.457183
  H     -2.097834   -2.239115   -0.682565
  H     -0.826653   -1.512429   -1.656525
  H     -1.006747   -1.702042    1.371710
  H      0.163697   -2.504289    0.339949
  H     -1.528598    2.019767   -0.669516
  H     -0.524570    0.986167   -1.688963
  H      2.204726   -1.652200    0.095564
  H      1.775537    0.778145   -1.693399
  H      1.152709   -0.844857   -2.044722
  H      2.885162   -0.561357   -1.955305
  H      3.133233   -0.062659    1.694696
  H      2.704582    1.300529    0.664314
  H      3.949734    0.161024    0.146578

 Total Charge           Charge          ....    0
 Multiplicity           Mult            ....    1
 Number of Electrons    NEL             ....   86
 Basis Dimension        Dim             ....  190

ORBITAL ENERGIES
----------------

  NO   OCC          E(Eh)            E(eV)
   0   2.0000     -18.730825      -509.6917
   1   2.0000      -9.968197      -271.2484
   2   2.0000      -9.905326      -269.5376
   3   2.0000      -9.904687      -269.5202
   4   2.0000      -9.896947      -269.3096
   5   2.0000      -9.890937      -269.1461
   6   2.0000      -9.889939      -269.1189
   7   2.0000      -9.887956      -269.0650
   8   2.0000      -9.879421      -268.8327
   9   2.0000      -9.879386      -268.8318
  10   2.0000      -9.866664      -268.4856
  11   2.0000      -0.928761       -25.2729
  12   2.0000      -0.766696       -20.8629
  13   2.0000      -0.730298       -19.8724
  14   2.0000      -0.677291       -18.4300
  15   2.0000      -0.649674       -17.6785
  16   2.0000      -0.623650       -16.9704
  17   2.0000      -0.608915       -16.5694
  18   2.0000      -0.555370       -15.1124
  19   2.0000      -0.526862       -14.3366
  20   2.0000      -0.504632       -13.7317
  21   2.0000      -0.455595       -12.3974
  22   2.0000      -0.428298       -11.6546
  23   2.0000      -0.425132       -11.5684
  24   2.0000      -0.412089       -11.2135
  25   2.0000      -0.405564       -11.0360
  26   2.0000      -0.395836       -10.7712
  27   2.0000      -0.377373       -10.2688
  28   2.0000      -0.369209       -10.0467
  29   2.0000      -0.355740        -9.6802
  30   2.0000      -0.348606        -9.4860
  31   2.0000      -0.346751        -9.4356
  32   2.0000      -0.338804        -9.2193
  33   2.0000      -0.335983        -9.1426
  34   2.0000      -0.319038        -8.6815
  35   2.0000      -0.311069        -8.4646
  36   2.0000      -0.297222        -8.0878
  37   2.0000      -0.295367        -8.0373
  38   2.0000      -0.291525        -7.9328
  39   2.0000      -0.279535        -7.6065
  40   2.0000      -0.273725        -7.4484
  41   2.0000      -0.266590        -7.2543
  42   2.0000      -0.185556        -5.0492
  43   0.0000      -0.052340        -1.4243
  44   0.0000       0.021009         0.5717
  45   0.0000       0.046511         1.2656
  46   0.0000       0.049946         1.3591
  47   0.0000       0.064835         1.7642

MULLIKEN ATOMIC CHARGES
-----------------------
   0 C :   -0.256329
   1 C :   -0.179712
   2 H :    0.070413
   3 C :   -0.131502
   4 C :   -0.110533
   5 C :   -0.087076
   6 H :    0.074117
   7 C :   -0.036107
   8 O :   -0.164330
   9 C :   -0.061601
  10 C :   -0.180013
  11 C :   -0.270350
  12 C :   -0.237913
  13 H :    0.105577
  14 H :    0.102573
  15 H :    0.118118
  16 H :    0.083788
  17 H :    0.089633
  18 H :    0.088216
  19 H :    0.078058
  20 H :    0.085640
  21 H :    0.100950
  22 H :    0.074060
  23 H :    0.121155
  24 H :    0.109140
  25 H :    0.103095
  26 H :    0.097165
  27 H :    0.119651
  28 H :    0.094116
Sum of atomic charges:   -0.0000000

LOEWDIN ATOMIC CHARGES
----------------------
   0 C :   -0.331769
   1 C :   -0.148188
   2 H :    0.117966
   3 C :   -0.219957
   4 C :   -0.217398
   5 C :   -0.157335
   6 H :    0.133798
   7 C :    0.055107
   8 O :   -0.131677
   9 C :   -0.235972
  10 C :   -0.133465
  11 C :   -0.336771
  12 C :   -0.334883
  13 H :    0.123926
  14 H :    0.120036
  15 H :    0.120257
  16 H :    0.119362
  17 H :    0.113857
  18 H :    0.120845
  19 H :    0.118561
  20 H :    0.129157
  21 H :    0.139118
  22 H :    0.115712
  23 H :    0.121687
  24 H :    0.114768
  25 H :    0.123214
  26 H :    0.117892
  27 H :    0.126471
  28 H :    0.115680

  Mayer bond orders larger than 0.100000
B(  0-C ,  1-C ) :   1.1035 B(  0-C , 13-H ) :   0.9467 B(  0-C , 14-H ) :   0.9498
B(  0-C , 15-H ) :   0.9386 B(  1-C ,  2-H ) :   0.8941 B(  1-C ,  3-C ) :   1.0789
B(  1-C ,  9-C ) :   1.0571 B(  3-C ,  4-C ) :   1.1341 B(  3-C , 16-H ) :   0.9070
B(  3-C , 17-H ) :   0.9107 B(  4-C ,  5-C ) :   1.0525 B(  4-C , 18-H ) :   0.9103
B(  4-C , 19-H ) :   0.9048 B(  5-C ,  6-H ) :   0.8662 B(  5-C ,  7-C ) :   0.9433
B(  5-C , 10-C ) :   1.0301 B(  7-C ,  8-O ) :   2.1521 B(  7-C ,  9-C ) :   1.0423
B(  9-C , 20-H ) :   0.8894 B(  9-C , 21-H ) :   0.8749 B( 10-C , 11-C ) :   1.1282
B( 10-C , 12-C ) :   1.1174 B( 10-C , 22-H ) :   0.8957 B( 11-C , 23-H ) :   0.9324
B( 11-C , 24-H ) :   0.9349 B( 11-C , 25-H ) :   0.9395 B( 12-C , 26-H ) :   0.9458
B( 12-C , 27-H ) :   0.9331 B( 12-C , 28-H ) :   0.9462

Dispersion correction           -0.031604587
FINAL SINGLE POINT ENERGY      -466.029872397280

DIPOLE MOMENT
-------------

Method             : SCF
Type of density    : Electron Density
Multiplicity       :   1
Irrep              :   0
Energy             :  -466.1256663421582971 Eh
Relativity type    :
Basis              : AO
                                X                 Y                 Z
Electronic contribution:     -0.710965645       4.587508416       2.590259248
Nuclear contribution   :      0.414695423      -5.471690805      -3.107557547
                        -----------------------------------------
Total Dipole Moment    :     -0.296270222      -0.884182389      -0.517298299
                        -----------------------------------------
Magnitude (a.u.)       :      1.066373327
Magnitude (Debye)      :      2.710505589

Rotational constants in cm-1:             0.059143             0.028156             0.024433
Rotational constants in MHz :          1773.049481           844.081975           732.486285

                             ****ORCA TERMINATED NORMALLY****
TOTAL RUN TIME: 0 days 0 hours 0 minutes 13 seconds 928 msec
