                         Program Version 6.0.0  -   RELEASE  -
|  1> ! r2scan-3c def2/J RI DEFGRID2 scfconv6 printgap
|  2> %output
|  3>     printlevel normal
|  4> end
|  5> * xyz 0 1
|  6> C 3.7309746607 0.3053101793 0.1533622317
|  7> C 2.2915271157 0.1761526495 -0.3371227773
|  8> H 2.3045651775 -0.0690963562 -1.405598639
|  9> C 1.5201370253 1.4788942687 -0.1471185099
| 10> C 0.0784044384 1.3380294434 -0.6263467834
| 11> C -0.6692239448 0.2313758724 0.12569202
| 12> H -0.6602371551 0.469287869 1.1945320065
| 13> C 0.1099812105 -1.0827043647 -0.0681995749
| 14> H 0.1080169834 -1.321185783 -1.1466616511
| 15> C 1.5596763855 -0.9375758653 0.4061162681
| 16> O -0.5318141499 -2.1323595597 0.6357546592
| 17> C -2.1439063366 0.0745220631 -0.3197694805
| 18> C -2.9882895795 -0.5010492017 0.8187191687
| 19> C -2.7932569885 1.3783915471 -0.7866443246
| 20> H 4.2457667108 1.0967318276 -0.3857881448
| 21> H 3.7491908613 0.5440443213 1.2143763942
| 22> H 4.2731609679 -0.6247938922 0.0006463531
| 23> H 1.526089322 1.7480289841 0.911502418
| 24> H 2.0090739869 2.2833618715 -0.7000580247
| 25> H -0.4297144023 2.2892281472 -0.476772679
| 26> H 0.0734506512 1.1116155835 -1.6953137105
| 27> H 1.5521239147 -0.7237993523 1.4775919098
| 28> H 2.0816461251 -1.8865954039 0.2567204302
| 29> H -0.0141141603 -2.941883538 0.5309602205
| 30> H -2.1674131694 -0.6322457128 -1.1572541027
| 31> H -2.5495131031 -1.419824571 1.1932483552
| 32> H -3.9972277405 -0.7126174927 0.4714372699
| 33> H -3.0492033389 0.2147489901 1.6361614974
| 34> H -3.8430535458 1.1947803599 -1.0049000405
| 35> H -2.3264541801 1.762703077 -1.6886325106
| 36> H -2.7385567158 2.1350620436 -0.0073835021
| 37> *
| 38>
| 39>                          ****END OF INPUT****

CARTESIAN COORDINATES (ANGSTROEM)
---------------------------------
  C      3.730975    0.305310    0.153362
  C      2.291527    0.176153   -0.337123
  H      2.304565   -0.069096   -1.405599
  C      1.520137    1.478894   -0.147119
  C      0.078404    1.338029   -0.626347
  C     -0.669224    0.231376    0.125692
  H     -0.660237    0.469288    1.194532
  C      0.109981   -1.082704   -0.068200
  H      0.108017   -1.321186   -1.146662
  C      1.559676   -0.937576    0.406116
  O     -0.531814   -2.132360    0.635755
  C     -2.143906    0.074522   -0.319769
  C     -2.988290   -0.501049    0.818719
  C     -2.793257    1.378392   -0.786644
  H      4.245767    1.096732   -0.385788
  H      3.749191    0.544044    1.214376
  H      4.273161   -0.624794    0.000646
  H      1.526089    1.748029    0.911502
  H      2.009074    2.283362   -0.700058
  H     -0.429714    2.289228   -0.476773
  H      0.073451    1.111616   -1.695314
  H      1.552124   -0.723799    1.477592
  H      2.081646   -1.886595    0.256720
  H     -0.014114   -2.941884    0.530960
  H     -2.167413   -0.632246   -1.157254
  H     -2.549513   -1.419825    1.193248
  H     -3.997228   -0.712617    0.471437
  H     -3.049203    0.214749    1.636161
  H     -3.843054    1.194780   -1.004900
  H     -2.326454    1.762703   -1.688633
  H     -2.738557    2.135062   -0.007384

 Total Charge           Charge          ....    0
 Multiplicity           Mult            ....    1
 Number of Electrons    NEL             ....   88
 Basis Dimension        Dim             ....  314

ORBITAL ENERGIES
----------------

  NO   OCC          E(Eh)            E(eV)
   0   2.0000     -18.945918      -515.5446
   1   2.0000     -10.077551      -274.2241
   2   2.0000     -10.033687      -273.0305
   3   2.0000     -10.027425      -272.8601
   4   2.0000     -10.024974      -272.7934
   5   2.0000     -10.023129      -272.7432
   6   2.0000     -10.022523      -272.7267
   7   2.0000     -10.022267      -272.7197
   8   2.0000     -10.017075      -272.5785
   9   2.0000     -10.008283      -272.3392
  10   2.0000      -9.996210      -272.0107
  11   2.0000      -0.984968       -26.8023
  12   2.0000      -0.806012       -21.9327
  13   2.0000      -0.764365       -20.7994
  14   2.0000      -0.711324       -19.3561
  15   2.0000      -0.698271       -19.0009
  16   2.0000      -0.643723       -17.5166
  17   2.0000      -0.636594       -17.3226
  18   2.0000      -0.579365       -15.7653
  19   2.0000      -0.559292       -15.2191
  20   2.0000      -0.527838       -14.3632
  21   2.0000      -0.517692       -14.0871
  22   2.0000      -0.475208       -12.9311
  23   2.0000      -0.445880       -12.1330
  24   2.0000      -0.425430       -11.5765
  25   2.0000      -0.412340       -11.2203
  26   2.0000      -0.408372       -11.1124
  27   2.0000      -0.393248       -10.7008
  28   2.0000      -0.376313       -10.2400
  29   2.0000      -0.365091        -9.9346
  30   2.0000      -0.358519        -9.7558
  31   2.0000      -0.356974        -9.7138
  32   2.0000      -0.343200        -9.3389
  33   2.0000      -0.339378        -9.2349
  34   2.0000      -0.330569        -8.9952
  35   2.0000      -0.312118        -8.4932
  36   2.0000      -0.310572        -8.4511
  37   2.0000      -0.307213        -8.3597
  38   2.0000      -0.293882        -7.9969
  39   2.0000      -0.282617        -7.6904
  40   2.0000      -0.278724        -7.5845
  41   2.0000      -0.269899        -7.3443
  42   2.0000      -0.254966        -6.9380
  43   2.0000      -0.230805        -6.2805
  44   0.0000       0.061366         1.6699
  45   0.0000       0.081301         2.2123
  46   0.0000       0.089325         2.4307
  47   0.0000       0.100675         2.7395
  48   0.0000       0.113734         3.0949

MULLIKEN ATOMIC CHARGES
-----------------------
   0 C :   -0.499056
   1 C :   -0.047995
   2 H :    0.161027
   3 C :   -0.337926
   4 C :   -0.366838
   5 C :   -0.066857
   6 H :    0.188121
   7 C :   -0.076053
   8 H :    0.158298
   9 C :   -0.369561
  10 O :   -0.414893
  11 C :    0.009749
  12 C :   -0.583269
  13 C :   -0.512702
  14 H :    0.147784
  15 H :    0.151355
  16 H :    0.146247
  17 H :    0.156828
  18 H :    0.147799
  19 H :    0.156836
  20 H :    0.163631
  21 H :    0.173845
  22 H :    0.131116
  23 H :    0.283965
  24 H :    0.161780
  25 H :    0.190438
  26 H :    0.140461
  27 H :    0.144397
  28 H :    0.147278
  29 H :    0.151394
  30 H :    0.162801
Sum of atomic charges:    0.0000000

LOEWDIN ATOMIC CHARGES
----------------------
   0 C :   -0.412117
   1 C :   -0.233795
   2 H :    0.158253
   3 C :   -0.292576
   4 C :   -0.286549
   5 C :   -0.181883
   6 H :    0.172784
   7 C :    0.068315
   8 H :    0.165965
   9 C :   -0.270623
  10 O :   -0.625284
  11 C :   -0.226392
  12 C :   -0.414074
  13 C :   -0.418859
  14 H :    0.153459
  15 H :    0.154518
  16 H :    0.152846
  17 H :    0.159594
  18 H :    0.158248
  19 H :    0.163384
  20 H :    0.160549
  21 H :    0.168644
  22 H :    0.157416
  23 H :    0.268424
  24 H :    0.162658
  25 H :    0.179491
  26 H :    0.148429
  27 H :    0.149520
  28 H :    0.154383
  29 H :    0.151924
  30 H :    0.153348

  Mayer bond orders larger than 0.100000
B(  0-C ,  1-C ) :   0.8866 B(  0-C , 14-H ) :   0.9758 B(  0-C , 15-H ) :   0.9959
B(  0-C , 16-H ) :   0.9770 B(  1-C ,  2-H ) :   0.9589 B(  1-C ,  3-C ) :   0.9164
B(  1-C ,  9-C ) :   0.9064 B(  3-C ,  4-C ) :   0.8920 B(  3-C , 17-H ) :   1.0150
B(  3-C , 18-H ) :   0.9467 B(  4-C ,  5-C ) :   0.8629 B(  4-C , 19-H ) :   0.9336
B(  4-C , 20-H ) :   1.0018 B(  5-C ,  6-H ) :   0.9801 B(  5-C ,  7-C ) :   0.9387
B(  5-C , 11-C ) :   0.8338 B(  7-C ,  8-H ) :   1.0003 B(  7-C ,  9-C ) :   0.8500
B(  7-C , 10-O ) :   0.8470 B(  9-C , 21-H ) :   1.0229 B(  9-C , 22-H ) :   0.9450
B( 10-O , 23-H ) :   0.9001 B( 11-C , 12-C ) :   0.8974 B( 11-C , 13-C ) :   0.8375
B( 11-C , 24-H ) :   0.9766 B( 12-C , 25-H ) :   0.9648 B( 12-C , 26-H ) :   0.9775
B( 12-C , 27-H ) :   0.9905 B( 13-C , 28-H ) :   0.9750 B( 13-C , 29-H ) :   0.9672
B( 13-C , 30-H ) :   0.9984

Dispersion correction           -0.010719903
FINAL SINGLE POINT ENERGY      -468.205491001200

DIPOLE MOMENT
-------------

Method             : SCF
Type of density    : Electron Density
Multiplicity       :   1
Irrep              :   0
Energy             :  -468.2100855494693405 Eh
Relativity type    :
Basis              : AO
                                X                 Y                 Z
Electronic contribution:      0.450245415      -4.283803820       0.417445467
Nuclear contribution   :      0.130579708       4.206566900      -0.723448112
                        -----------------------------------------
Total Dipole Moment    :      0.580825123      -0.077236919      -0.306002644
                        -----------------------------------------
Magnitude (a.u.)       :      0.661030244
Magnitude (Debye)      :      1.680205352

Rotational constants in cm-1:             0.062045             0.023396             0.018165
Rotational constants in MHz :          1860.052405           701.390908           544.572612

                             ****ORCA TERMINATED NORMALLY****
TOTAL RUN TIME: 0 days 0 hours 0 minutes 48 seconds 423 msec
