                         Program Version 6.0.0  -   RELEASE  -
|  1> ! r2scan-3c def2/J RI DEFGRID2 scfconv6 printgap
|  2> %output
|  3>     printlevel normal
|  4> end
|  5> %cpcm
|  6>     smd true
|  7>     smdsolvent "water"
|  8> end
|  9> * xyz 0 1
| 10> C 3.7309746607 0.3053101793 0.1533622317
| 11> C 2.2915271157 0.1761526495 -0.3371227773
| 12> H 2.3045651775 -0.0690963562 -1.405598639
| 13> C 1.5201370253 1.4788942687 -0.1471185099
| 14> C 0.0784044384 1.3380294434 -0.6263467834
| 15> C -0.6692239448 0.2313758724 0.12569202
| 16> H -0.6602371551 0.469287869 1.1945320065
| 17> C 0.1099812105 -1.0827043647 -0.0681995749
| 18> H 0.1080169834 -1.321185783 -1.1466616511
| 19> C 1.5596763855 -0.9375758653 0.4061162681
| 20> O -0.5318141499 -2.1323595597 0.6357546592
| 21> C -2.1439063366 0.0745220631 -0.3197694805
| 22> C -2.9882895795 -0.5010492017 0.8187191687
| 23> C -2.7932569885 1.3783915471 -0.7866443246
| 24> H 4.2457667108 1.0967318276 -0.3857881448
| 25> H 3.7491908613 0.5440443213 1.2143763942
| 26> H 4.2731609679 -0.6247938922 0.0006463531
| 27> H 1.526089322 1.7480289841 0.911502418
| 28> H 2.0090739869 2.2833618715 -0.7000580247
| 29> H -0.4297144023 2.2892281472 -0.476772679
| 30> H 0.0734506512 1.1116155835 -1.6953137105
| 31> H 1.5521239147 -0.7237993523 1.4775919098
| 32> H 2.0816461251 -1.8865954039 0.2567204302
| 33> H -0.0141141603 -2.941883538 0.5309602205
| 34> H -2.1674131694 -0.6322457128 -1.1572541027
| 35> H -2.5495131031 -1.419824571 1.1932483552
| 36> H -3.9972277405 -0.7126174927 0.4714372699
| 37> H -3.0492033389 0.2147489901 1.6361614974
| 38> H -3.8430535458 1.1947803599 -1.0049000405
| 39> H -2.3264541801 1.762703077 -1.6886325106
| 40> H -2.7385567158 2.1350620436 -0.0073835021
| 41> *
| 42>
| 43>                          ****END OF INPUT****

CARTESIAN COORDINATES (ANGSTROEM)
---------------------------------
  C      3.730975    0.305310    0.153362
  C      2.291527    0.176153   -0.337123
  H      2.304565   -0.069096   -1.405599
  C      1.520137    1.478894   -0.147119
  C      0.078404    1.338029   -0.626347
  C     -0.669224    0.231376    0.125692
  H     -0.660237    0.469288    1.194532
  C      0.109981   -1.082704   -0.068200
  H      0.108017   -1.321186   -1.146662
  C      1.559676   -0.937576    0.406116
  O     -0.531814   -2.132360    0.635755
  C     -2.143906    0.074522   -0.319769
  C     -2.988290   -0.501049    0.818719
  C     -2.793257    1.378392   -0.786644
  H      4.245767    1.096732   -0.385788
  H      3.749191    0.544044    1.214376
  H      4.273161   -0.624794    0.000646
  H      1.526089    1.748029    0.911502
  H      2.009074    2.283362   -0.700058
  H     -0.429714    2.289228   -0.476773
  H      0.073451    1.111616   -1.695314
  H      1.552124   -0.723799    1.477592
  H      2.081646   -1.886595    0.256720
  H     -0.014114   -2.941884    0.530960
  H     -2.167413   -0.632246   -1.157254
  H     -2.549513   -1.419825    1.193248
  H     -3.997228   -0.712617    0.471437
  H     -3.049203    0.214749    1.636161
  H     -3.843054    1.194780   -1.004900
  H     -2.326454    1.762703   -1.688633
  H     -2.738557    2.135062   -0.007384

 Total Charge           Charge          ....    0
 Multiplicity           Mult            ....    1
 Number of Electrons    NEL             ....   88
 Basis Dimension        Dim             ....  314

ORBITAL ENERGIES
----------------

  NO   OCC          E(Eh)            E(eV)
   0   2.0000     -18.945848      -515.5427
   1   2.0000     -10.070495      -274.0321
   2   2.0000     -10.023151      -272.7438
   3   2.0000     -10.022567      -272.7279
   4   2.0000     -10.021402      -272.6962
   5   2.0000     -10.013170      -272.4722
   6   2.0000     -10.011985      -272.4400
   7   2.0000     -10.011509      -272.4270
   8   2.0000     -10.006415      -272.2884
   9   2.0000     -10.004290      -272.2306
  10   2.0000      -9.999841      -272.1095
  11   2.0000      -0.984067       -26.7778
  12   2.0000      -0.797555       -21.7026
  13   2.0000      -0.759254       -20.6603
  14   2.0000      -0.704809       -19.1788
  15   2.0000      -0.689634       -18.7659
  16   2.0000      -0.638953       -17.3868
  17   2.0000      -0.633322       -17.2336
  18   2.0000      -0.571297       -15.5458
  19   2.0000      -0.553931       -15.0732
  20   2.0000      -0.518078       -14.0976
  21   2.0000      -0.513519       -13.9736
  22   2.0000      -0.469415       -12.7734
  23   2.0000      -0.438786       -11.9400
  24   2.0000      -0.418437       -11.3863
  25   2.0000      -0.407245       -11.0817
  26   2.0000      -0.401208       -10.9174
  27   2.0000      -0.387984       -10.5576
  28   2.0000      -0.371164       -10.0999
  29   2.0000      -0.360322        -9.8048
  30   2.0000      -0.350601        -9.5403
  31   2.0000      -0.349334        -9.5059
  32   2.0000      -0.338954        -9.2234
  33   2.0000      -0.337427        -9.1818
  34   2.0000      -0.324919        -8.8415
  35   2.0000      -0.308485        -8.3943
  36   2.0000      -0.305057        -8.3010
  37   2.0000      -0.300796        -8.1851
  38   2.0000      -0.283460        -7.7133
  39   2.0000      -0.277127        -7.5410
  40   2.0000      -0.274474        -7.4688
  41   2.0000      -0.265360        -7.2208
  42   2.0000      -0.249433        -6.7874
  43   2.0000      -0.230229        -6.2649
  44   0.0000       0.077471         2.1081
  45   0.0000       0.092839         2.5263
  46   0.0000       0.097777         2.6606
  47   0.0000       0.108874         2.9626
  48   0.0000       0.120153         3.2695

MULLIKEN ATOMIC CHARGES
-----------------------
   0 C :   -0.549080
   1 C :   -0.028176
   2 H :    0.170071
   3 C :   -0.358357
   4 C :   -0.382467
   5 C :   -0.058209
   6 H :    0.193655
   7 C :   -0.072230
   8 H :    0.169205
   9 C :   -0.388948
  10 O :   -0.495596
  11 C :    0.017588
  12 C :   -0.625892
  13 C :   -0.554336
  14 H :    0.158281
  15 H :    0.162789
  16 H :    0.158549
  17 H :    0.164319
  18 H :    0.155376
  19 H :    0.162893
  20 H :    0.174367
  21 H :    0.173201
  22 H :    0.155806
  23 H :    0.337783
  24 H :    0.170355
  25 H :    0.177400
  26 H :    0.155670
  27 H :    0.161154
  28 H :    0.156765
  29 H :    0.162520
  30 H :    0.175546
Sum of atomic charges:    0.0000000

LOEWDIN ATOMIC CHARGES
----------------------
   0 C :   -0.421234
   1 C :   -0.230921
   2 H :    0.161761
   3 C :   -0.295440
   4 C :   -0.286974
   5 C :   -0.183528
   6 H :    0.173322
   7 C :    0.069734
   8 H :    0.172740
   9 C :   -0.271125
  10 O :   -0.656397
  11 C :   -0.226862
  12 C :   -0.425669
  13 C :   -0.425161
  14 H :    0.155515
  15 H :    0.156496
  16 H :    0.155657
  17 H :    0.161492
  18 H :    0.159981
  19 H :    0.164773
  20 H :    0.164027
  21 H :    0.167950
  22 H :    0.165565
  23 H :    0.285512
  24 H :    0.163587
  25 H :    0.171231
  26 H :    0.151797
  27 H :    0.153858
  28 H :    0.155625
  29 H :    0.155656
  30 H :    0.157033

  Mayer bond orders larger than 0.100000
B(  0-C ,  1-C ) :   0.8714 B(  0-C , 14-H ) :   0.9741 B(  0-C , 15-H ) :   0.9947
B(  0-C , 16-H ) :   0.9746 B(  1-C ,  2-H ) :   0.9565 B(  1-C ,  3-C ) :   0.9112
B(  1-C ,  9-C ) :   0.9077 B(  3-C ,  4-C ) :   0.8975 B(  3-C , 17-H ) :   1.0128
B(  3-C , 18-H ) :   0.9455 B(  4-C ,  5-C ) :   0.8703 B(  4-C , 19-H ) :   0.9329
B(  4-C , 20-H ) :   0.9996 B(  5-C ,  6-H ) :   0.9743 B(  5-C ,  7-C ) :   0.9394
B(  5-C , 11-C ) :   0.8201 B(  7-C ,  8-H ) :   0.9883 B(  7-C ,  9-C ) :   0.8806
B(  7-C , 10-O ) :   0.8371 B(  9-C , 21-H ) :   1.0176 B(  9-C , 22-H ) :   0.9411
B( 10-O , 23-H ) :   0.8760 B( 11-C , 12-C ) :   0.8752 B( 11-C , 13-C ) :   0.8406
B( 11-C , 24-H ) :   0.9795 B( 12-C , 25-H ) :   0.9720 B( 12-C , 26-H ) :   0.9758
B( 12-C , 27-H ) :   0.9876 B( 13-C , 28-H ) :   0.9739 B( 13-C , 29-H ) :   0.9655
B( 13-C , 30-H ) :   0.9943

Dispersion correction           -0.010719903
FINAL SINGLE POINT ENERGY      -468.209250190903

DIPOLE MOMENT
-------------

Method             : SCF
Type of density    : Electron Density
Multiplicity       :   1
Irrep              :   0
Energy             :  -468.2138447391722593 Eh
Relativity type    :
Basis              : AO
                                X                 Y                 Z
Electronic contribution:      0.669983197      -4.256222131       0.223219954
Nuclear contribution   :      0.130579708       4.206566900      -0.723448112
                        -----------------------------------------
Total Dipole Moment    :      0.800562905      -0.049655231      -0.500228158
                        -----------------------------------------
Magnitude (a.u.)       :      0.945301442
Magnitude (Debye)      :      2.402765315

Rotational constants in cm-1:             0.062045             0.023396             0.018165
Rotational constants in MHz :          1860.052405           701.390908           544.572612

                             ****ORCA TERMINATED NORMALLY****
TOTAL RUN TIME: 0 days 0 hours 0 minutes 59 seconds 410 msec
