                         Program Version 6.0.0  -   RELEASE  -
|  1> ! pbe def2-sv(p) def2/J RI DEFGRID1 loosescf d4 GCP(DFT/SV(P)) printgap
|  2> %output
|  3>     printlevel normal
|  4> end
|  5> * xyz 0 1
|  6> C -2.5359213278 0.631332651 0.0662829881
|  7> C -1.3925620224 -0.3374420983 -0.1726219848
|  8> O -0.1723873972 0.4135112942 -0.2866053397
|  9> C 0.9708068719 -0.1670359091 0.0543720453
| 10> O 1.046793258 -1.3111226309 0.4552693816
| 11> C 2.132435365 0.7641133252 -0.121812741
| 12> H -3.4685065427 0.0794348849 0.1239603119
| 13> H -2.3823582637 1.1716310403 0.9959834503
| 14> H -2.5904587928 1.3460888293 -0.7494198526
| 15> H -1.5320504086 -0.8926445795 -1.1055016461
| 16> H -1.2847248843 -1.0546378287 0.647564717
| 17> H 3.0364304297 0.2945108842 0.2510694773
| 18> H 1.9342803806 1.6913138511 0.4081659231
| 19> H 2.2412967163 0.9955344855 -1.1783087355
| 20> *
| 21>
| 22>                          ****END OF INPUT****

CARTESIAN COORDINATES (ANGSTROEM)
---------------------------------
  C     -2.535921    0.631333    0.066283
  C     -1.392562   -0.337442   -0.172622
  O     -0.172387    0.413511   -0.286605
  C      0.970807   -0.167036    0.054372
  O      1.046793   -1.311123    0.455269
  C      2.132435    0.764113   -0.121813
  H     -3.468507    0.079435    0.123960
  H     -2.382358    1.171631    0.995983
  H     -2.590459    1.346089   -0.749420
  H     -1.532050   -0.892645   -1.105502
  H     -1.284725   -1.054638    0.647565
  H      3.036430    0.294511    0.251069
  H      1.934280    1.691314    0.408166
  H      2.241297    0.995534   -1.178309

 Total Charge           Charge          ....    0
 Multiplicity           Mult            ....    1
 Number of Electrons    NEL             ....   48
 Basis Dimension        Dim             ....  100

ORBITAL ENERGIES
----------------

  NO   OCC          E(Eh)            E(eV)
   0   2.0000     -18.795496      -511.4514
   1   2.0000     -18.728849      -509.6379
   2   2.0000     -10.006836      -272.2998
   3   2.0000      -9.945779      -270.6384
   4   2.0000      -9.892927      -269.2002
   5   2.0000      -9.889131      -269.0969
   6   2.0000      -1.002672       -27.2841
   7   2.0000      -0.906049       -24.6548
   8   2.0000      -0.713823       -19.4241
   9   2.0000      -0.664102       -18.0711
  10   2.0000      -0.580032       -15.7835
  11   2.0000      -0.506394       -13.7797
  12   2.0000      -0.447834       -12.1862
  13   2.0000      -0.432334       -11.7644
  14   2.0000      -0.408718       -11.1218
  15   2.0000      -0.397140       -10.8067
  16   2.0000      -0.368865       -10.0373
  17   2.0000      -0.354987        -9.6597
  18   2.0000      -0.352393        -9.5891
  19   2.0000      -0.339365        -9.2346
  20   2.0000      -0.314998        -8.5715
  21   2.0000      -0.293614        -7.9896
  22   2.0000      -0.254315        -6.9203
  23   2.0000      -0.214993        -5.8502
  24   0.0000      -0.017044        -0.4638
  25   0.0000       0.042177         1.1477
  26   0.0000       0.059412         1.6167
  27   0.0000       0.082649         2.2490
  28   0.0000       0.091880         2.5002

MULLIKEN ATOMIC CHARGES
-----------------------
   0 C :   -0.279770
   1 C :   -0.026923
   2 O :   -0.247778
   3 C :    0.078379
   4 O :   -0.210621
   5 C :   -0.245120
   6 H :    0.111188
   7 H :    0.113300
   8 H :    0.113520
   9 H :    0.102410
  10 H :    0.112771
  11 H :    0.123461
  12 H :    0.125415
  13 H :    0.129768
Sum of atomic charges:    0.0000000

LOEWDIN ATOMIC CHARGES
----------------------
   0 C :   -0.350987
   1 C :   -0.110459
   2 O :   -0.077816
   3 C :    0.027620
   4 O :   -0.171352
   5 C :   -0.358588
   6 H :    0.129852
   7 H :    0.125695
   8 H :    0.125499
   9 H :    0.114993
  10 H :    0.118381
  11 H :    0.139074
  12 H :    0.142484
  13 H :    0.145605

  Mayer bond orders larger than 0.100000
B(  0-C ,  1-C ) :   1.1558 B(  0-C ,  6-H ) :   0.9449 B(  0-C ,  7-H ) :   0.9525
B(  0-C ,  8-H ) :   0.9487 B(  1-C ,  2-O ) :   0.9157 B(  1-C ,  9-H ) :   0.9366
B(  1-C , 10-H ) :   0.9183 B(  2-O ,  3-C ) :   1.1881 B(  3-C ,  4-O ) :   2.0694
B(  3-C ,  5-C ) :   1.0826 B(  5-C , 11-H ) :   0.9429 B(  5-C , 12-H ) :   0.9300
B(  5-C , 13-H ) :   0.9292

Dispersion correction           -0.008742140
FINAL SINGLE POINT ENERGY      -307.030965803752

DIPOLE MOMENT
-------------

Method             : SCF
Type of density    : Electron Density
Multiplicity       :   1
Irrep              :   0
Energy             :  -307.0853724489264778 Eh
Relativity type    :
Basis              : AO
                                X                 Y                 Z
Electronic contribution:      3.369356946      -2.743313170       0.312264548
Nuclear contribution   :     -3.782946227       3.393391169      -0.566483933
                        -----------------------------------------
Total Dipole Moment    :     -0.413589281       0.650078000      -0.254219385
                        -----------------------------------------
Magnitude (a.u.)       :      0.811347641
Magnitude (Debye)      :      2.062281811

Rotational constants in cm-1:             0.275171             0.070177             0.058744
Rotational constants in MHz :          8249.408238          2103.852510          1761.114416

                             ****ORCA TERMINATED NORMALLY****
TOTAL RUN TIME: 0 days 0 hours 0 minutes 6 seconds 801 msec
