                         Program Version 6.0.0  -   RELEASE  -
|  1> ! pbe def2-sv(p) def2/J RI DEFGRID1 loosescf d4 GCP(DFT/SV(P)) printgap
|  2> %output
|  3>     printlevel normal
|  4> end
|  5> * xyz 0 1
|  6> C -6.35695e-05 0.990164109 -1.12798e-05
|  7> Br -1.6128786788 -0.0945627167 -5.5562e-06
|  8> Br 1.612902608 -0.0945412268 -5.767e-07
|  9> H -0.0009220213 1.5955622191 0.9034371119
| 10> H -0.0002174418 1.5965625105 -0.9028165185
| 11> *
| 12>
| 13>                          ****END OF INPUT****

CARTESIAN COORDINATES (ANGSTROEM)
---------------------------------
  C     -0.000064    0.990164   -0.000011
  Br    -1.612879   -0.094563   -0.000006
  Br     1.612903   -0.094541   -0.000001
  H     -0.000922    1.595562    0.903437
  H     -0.000217    1.596563   -0.902817

 Total Charge           Charge          ....    0
 Multiplicity           Mult            ....    1
 Number of Electrons    NEL             ....   78
 Basis Dimension        Dim             ....   82

ORBITAL ENERGIES
----------------

  NO   OCC          E(Eh)            E(eV)
   0   2.0000    -480.942328    -13087.1061
   1   2.0000    -480.942296    -13087.1052
   2   2.0000     -61.784933     -1681.2535
   3   2.0000     -61.784902     -1681.2527
   4   2.0000     -55.715648     -1516.0998
   5   2.0000     -55.715616     -1516.0990
   6   2.0000     -55.712378     -1516.0109
   7   2.0000     -55.712346     -1516.0100
   8   2.0000     -55.712293     -1516.0086
   9   2.0000     -55.712266     -1516.0078
  10   2.0000      -9.995932      -272.0032
  11   2.0000      -8.410328      -228.8567
  12   2.0000      -8.410298      -228.8558
  13   2.0000      -6.293004      -171.2414
  14   2.0000      -6.292976      -171.2406
  15   2.0000      -6.277839      -170.8287
  16   2.0000      -6.277815      -170.8280
  17   2.0000      -6.277168      -170.8104
  18   2.0000      -6.277142      -170.8097
  19   2.0000      -2.493913       -67.8628
  20   2.0000      -2.493880       -67.8619
  21   2.0000      -2.490371       -67.7664
  22   2.0000      -2.490342       -67.7656
  23   2.0000      -2.489892       -67.7534
  24   2.0000      -2.489864       -67.7526
  25   2.0000      -2.478471       -67.4426
  26   2.0000      -2.478446       -67.4420
  27   2.0000      -2.478446       -67.4419
  28   2.0000      -2.478422       -67.4413
  29   2.0000      -0.775675       -21.1072
  30   2.0000      -0.707235       -19.2448
  31   2.0000      -0.593528       -16.1507
  32   2.0000      -0.436563       -11.8795
  33   2.0000      -0.395612       -10.7652
  34   2.0000      -0.378882       -10.3099
  35   2.0000      -0.266858        -7.2616
  36   2.0000      -0.258266        -7.0278
  37   2.0000      -0.248101        -6.7512
  38   2.0000      -0.244537        -6.6542
  39   0.0000      -0.065859        -1.7921
  40   0.0000      -0.027004        -0.7348
  41   0.0000       0.046733         1.2717
  42   0.0000       0.074471         2.0265
  43   0.0000       0.269444         7.3319

MULLIKEN ATOMIC CHARGES
-----------------------
   0 C :   -0.276632
   1 Br:   -0.054480
   2 Br:   -0.054347
   3 H :    0.192721
   4 H :    0.192737
Sum of atomic charges:   -0.0000000

LOEWDIN ATOMIC CHARGES
----------------------
   0 C :   -0.372554
   1 Br:    0.046431
   2 Br:    0.046481
   3 H :    0.139816
   4 H :    0.139825

  Mayer bond orders larger than 0.100000
B(  0-C ,  1-Br) :   1.0424 B(  0-C ,  2-Br) :   1.0423 B(  0-C ,  3-H ) :   0.9177
B(  0-C ,  4-H ) :   0.9177

Dispersion correction           -0.004039087
FINAL SINGLE POINT ENERGY     -5186.105435854485

DIPOLE MOMENT
-------------

Method             : SCF
Type of density    : Electron Density
Multiplicity       :   1
Irrep              :   0
Energy             : -5186.1281636169969715 Eh
Relativity type    :
Basis              : AO
                                X                 Y                 Z
Electronic contribution:      0.001341306      -4.197861333      -0.000483545
Nuclear contribution   :     -0.001291216       4.750714431       0.000639176
                        -----------------------------------------
Total Dipole Moment    :      0.000050090       0.552853097       0.000155631
                        -----------------------------------------
Magnitude (a.u.)       :      0.552853122
Magnitude (Debye)      :      1.405240959

Rotational constants in cm-1:             0.843539             0.040392             0.038838
Rotational constants in MHz :         25288.668715          1210.922976          1164.344333

                             ****ORCA TERMINATED NORMALLY****
TOTAL RUN TIME: 0 days 0 hours 0 minutes 4 seconds 145 msec
