                         Program Version 6.0.0  -   RELEASE  -
|  1> ! r2scan-3c def2/J RI DEFGRID2 scfconv6 printgap
|  2> %output
|  3>     printlevel normal
|  4> end
|  5> * xyz 0 1
|  6> C -2.5512067959 -0.6566511751 -0.361225668
|  7> C -1.1708516217 -0.3115749144 0.2120635899
|  8> H -1.2254244347 -0.2622035739 1.3112398702
|  9> C -0.697443668 1.0573715712 -0.3007527184
| 10> H -0.7023954949 1.0496928508 -1.4018412196
| 11> C 0.7400993393 1.3243873908 0.1663241324
| 12> H 0.7486829899 1.4201955928 1.2640594015
| 13> C 1.6429420952 0.1506497583 -0.220221724
| 14> H 1.6954998297 0.0866402716 -1.3184337411
| 15> C 1.0310750057 -1.1575047805 0.3237387033
| 16> H 1.0304462953 -1.1093407816 1.4281553925
| 17> O -0.2694309661 -1.3324968564 -0.1707342457
| 18> O 1.7918127817 -2.2567716729 -0.0382470379
| 19> O 2.9190856031 0.3793459327 0.3224865663
| 20> O 1.1601566362 2.5294091396 -0.424875567
| 21> O -1.5789834274 2.0333293954 0.1863913218
| 22> O -3.1628620981 -1.7505532764 0.2672016814
| 23> H -2.4298652722 -0.9442579673 -1.4070196629
| 24> H -3.1745789785 0.2421710615 -0.2964622109
| 25> H 1.4303751652 -2.6303428702 -0.8574016511
| 26> H 3.447162376 -0.4289729088 0.2372058008
| 27> H 2.0951394006 2.667669719 -0.2134178206
| 28> H -1.2239984159 2.9053545044 -0.0467198614
| 29> H -3.3581271167 -1.5292469297 1.1889052351
| 30> *
| 31>
| 32>                          ****END OF INPUT****

CARTESIAN COORDINATES (ANGSTROEM)
---------------------------------
  C     -2.551207   -0.656651   -0.361226
  C     -1.170852   -0.311575    0.212064
  H     -1.225424   -0.262204    1.311240
  C     -0.697444    1.057372   -0.300753
  H     -0.702395    1.049693   -1.401841
  C      0.740099    1.324387    0.166324
  H      0.748683    1.420196    1.264059
  C      1.642942    0.150650   -0.220222
  H      1.695500    0.086640   -1.318434
  C      1.031075   -1.157505    0.323739
  H      1.030446   -1.109341    1.428155
  O     -0.269431   -1.332497   -0.170734
  O      1.791813   -2.256772   -0.038247
  O      2.919086    0.379346    0.322487
  O      1.160157    2.529409   -0.424876
  O     -1.578983    2.033329    0.186391
  O     -3.162862   -1.750553    0.267202
  H     -2.429865   -0.944258   -1.407020
  H     -3.174579    0.242171   -0.296462
  H      1.430375   -2.630343   -0.857402
  H      3.447162   -0.428973    0.237206
  H      2.095139    2.667670   -0.213418
  H     -1.223998    2.905355   -0.046720
  H     -3.358127   -1.529247    1.188905

 Total Charge           Charge          ....    0
 Multiplicity           Mult            ....    1
 Number of Electrons    NEL             ....   96
 Basis Dimension        Dim             ....  318

ORBITAL ENERGIES
----------------

  NO   OCC          E(Eh)            E(eV)
   0   2.0000     -18.978445      -516.4298
   1   2.0000     -18.974783      -516.3301
   2   2.0000     -18.968080      -516.1477
   3   2.0000     -18.965820      -516.0862
   4   2.0000     -18.963221      -516.0155
   5   2.0000     -18.952733      -515.7301
   6   2.0000     -10.144745      -276.0525
   7   2.0000     -10.099459      -274.8203
   8   2.0000     -10.097002      -274.7534
   9   2.0000     -10.095639      -274.7163
  10   2.0000     -10.092396      -274.6281
  11   2.0000     -10.081112      -274.3210
  12   2.0000      -1.060566       -28.8595
  13   2.0000      -1.019308       -27.7368
  14   2.0000      -1.008849       -27.4522
  15   2.0000      -0.994859       -27.0715
  16   2.0000      -0.990805       -26.9612
  17   2.0000      -0.985000       -26.8032
  18   2.0000      -0.758287       -20.6340
  19   2.0000      -0.741227       -20.1698
  20   2.0000      -0.658305       -17.9134
  21   2.0000      -0.623692       -16.9715
  22   2.0000      -0.597747       -16.2655
  23   2.0000      -0.570035       -15.5114
  24   2.0000      -0.534536       -14.5455
  25   2.0000      -0.514205       -13.9922
  26   2.0000      -0.502030       -13.6609
  27   2.0000      -0.480859       -13.0848
  28   2.0000      -0.474722       -12.9178
  29   2.0000      -0.460227       -12.5234
  30   2.0000      -0.440926       -11.9982
  31   2.0000      -0.422412       -11.4944
  32   2.0000      -0.420825       -11.4512
  33   2.0000      -0.401173       -10.9165
  34   2.0000      -0.386864       -10.5271
  35   2.0000      -0.368774       -10.0349
  36   2.0000      -0.358092        -9.7442
  37   2.0000      -0.349977        -9.5234
  38   2.0000      -0.338786        -9.2188
  39   2.0000      -0.323401        -8.8002
  40   2.0000      -0.316535        -8.6133
  41   2.0000      -0.297161        -8.0862
  42   2.0000      -0.284550        -7.7430
  43   2.0000      -0.267891        -7.2897
  44   2.0000      -0.256447        -6.9783
  45   2.0000      -0.250603        -6.8192
  46   2.0000      -0.238173        -6.4810
  47   2.0000      -0.228872        -6.2279
  48   0.0000       0.029931         0.8145
  49   0.0000       0.049603         1.3498
  50   0.0000       0.058629         1.5954
  51   0.0000       0.077536         2.1099
  52   0.0000       0.083953         2.2845

MULLIKEN ATOMIC CHARGES
-----------------------
   0 C :   -0.293616
   1 C :   -0.072531
   2 H :    0.162536
   3 C :    0.029269
   4 H :    0.166473
   5 C :   -0.049454
   6 H :    0.170701
   7 C :    0.120692
   8 H :    0.164091
   9 C :   -0.150169
  10 H :    0.156286
  11 O :   -0.178840
  12 O :   -0.386207
  13 O :   -0.445750
  14 O :   -0.444706
  15 O :   -0.445472
  16 O :   -0.392880
  17 H :    0.150837
  18 H :    0.168653
  19 H :    0.330660
  20 H :    0.311599
  21 H :    0.315843
  22 H :    0.315757
  23 H :    0.296230
Sum of atomic charges:    0.0000000

LOEWDIN ATOMIC CHARGES
----------------------
   0 C :    0.043815
   1 C :    0.119301
   2 H :    0.184728
   3 C :    0.115053
   4 H :    0.184403
   5 C :    0.107035
   6 H :    0.185678
   7 C :    0.106228
   8 H :    0.182637
   9 C :    0.294893
  10 H :    0.192194
  11 O :   -0.672076
  12 O :   -0.498008
  13 O :   -0.578289
  14 O :   -0.577063
  15 O :   -0.584185
  16 O :   -0.585394
  17 H :    0.189861
  18 H :    0.182492
  19 H :    0.287346
  20 H :    0.283747
  21 H :    0.283904
  22 H :    0.284886
  23 H :    0.266814

  Mayer bond orders larger than 0.100000
B(  0-C ,  1-C ) :   0.9112 B(  0-C , 16-O ) :   1.0209 B(  0-C , 17-H ) :   0.9796
B(  0-C , 18-H ) :   0.9843 B(  1-C ,  2-H ) :   0.9615 B(  1-C ,  3-C ) :   0.8628
B(  1-C , 11-O ) :   0.7875 B(  3-C ,  4-H ) :   0.9615 B(  3-C ,  5-C ) :   0.8654
B(  3-C , 15-O ) :   0.8545 B(  5-C ,  6-H ) :   0.9953 B(  5-C ,  7-C ) :   0.8538
B(  5-C , 14-O ) :   0.9156 B(  7-C ,  8-H ) :   0.9531 B(  7-C ,  9-C ) :   0.7472
B(  7-C , 13-O ) :   0.8900 B(  9-C , 10-H ) :   1.0126 B(  9-C , 11-O ) :   0.9638
B(  9-C , 12-O ) :   1.0898 B( 12-O , 19-H ) :   0.8656 B( 13-O , 20-H ) :   0.8764
B( 14-O , 21-H ) :   0.8784 B( 15-O , 22-H ) :   0.8783 B( 16-O , 23-H ) :   0.8942

Dispersion correction           -0.007933380
FINAL SINGLE POINT ENERGY      -687.075554517242

DIPOLE MOMENT
-------------

Method             : SCF
Type of density    : Electron Density
Multiplicity       :   1
Irrep              :   0
Energy             :  -687.0869786259578404 Eh
Relativity type    :
Basis              : AO
                                X                 Y                 Z
Electronic contribution:      1.986649177      -1.020004412       0.094000560
Nuclear contribution   :     -1.551270889       1.370740060      -0.102715229
                        -----------------------------------------
Total Dipole Moment    :      0.435378288       0.350735649      -0.008714669
                        -----------------------------------------
Magnitude (a.u.)       :      0.559147292
Magnitude (Debye)      :      1.421239469

Rotational constants in cm-1:             0.039636             0.025569             0.016290
Rotational constants in MHz :          1188.264959           766.528682           488.370323

                             ****ORCA TERMINATED NORMALLY****
TOTAL RUN TIME: 0 days 0 hours 0 minutes 43 seconds 381 msec
