                         Program Version 6.0.0  -   RELEASE  -
|  1> ! r2scan-3c def2/J RI DEFGRID2 scfconv6 printgap
|  2> %output
|  3>     printlevel normal
|  4> end
|  5> %cpcm
|  6>     smd true
|  7>     smdsolvent "water"
|  8> end
|  9> * xyz 0 1
| 10> C -2.5512067959 -0.6566511751 -0.361225668
| 11> C -1.1708516217 -0.3115749144 0.2120635899
| 12> H -1.2254244347 -0.2622035739 1.3112398702
| 13> C -0.697443668 1.0573715712 -0.3007527184
| 14> H -0.7023954949 1.0496928508 -1.4018412196
| 15> C 0.7400993393 1.3243873908 0.1663241324
| 16> H 0.7486829899 1.4201955928 1.2640594015
| 17> C 1.6429420952 0.1506497583 -0.220221724
| 18> H 1.6954998297 0.0866402716 -1.3184337411
| 19> C 1.0310750057 -1.1575047805 0.3237387033
| 20> H 1.0304462953 -1.1093407816 1.4281553925
| 21> O -0.2694309661 -1.3324968564 -0.1707342457
| 22> O 1.7918127817 -2.2567716729 -0.0382470379
| 23> O 2.9190856031 0.3793459327 0.3224865663
| 24> O 1.1601566362 2.5294091396 -0.424875567
| 25> O -1.5789834274 2.0333293954 0.1863913218
| 26> O -3.1628620981 -1.7505532764 0.2672016814
| 27> H -2.4298652722 -0.9442579673 -1.4070196629
| 28> H -3.1745789785 0.2421710615 -0.2964622109
| 29> H 1.4303751652 -2.6303428702 -0.8574016511
| 30> H 3.447162376 -0.4289729088 0.2372058008
| 31> H 2.0951394006 2.667669719 -0.2134178206
| 32> H -1.2239984159 2.9053545044 -0.0467198614
| 33> H -3.3581271167 -1.5292469297 1.1889052351
| 34> *
| 35>
| 36>                          ****END OF INPUT****

CARTESIAN COORDINATES (ANGSTROEM)
---------------------------------
  C     -2.551207   -0.656651   -0.361226
  C     -1.170852   -0.311575    0.212064
  H     -1.225424   -0.262204    1.311240
  C     -0.697444    1.057372   -0.300753
  H     -0.702395    1.049693   -1.401841
  C      0.740099    1.324387    0.166324
  H      0.748683    1.420196    1.264059
  C      1.642942    0.150650   -0.220222
  H      1.695500    0.086640   -1.318434
  C      1.031075   -1.157505    0.323739
  H      1.030446   -1.109341    1.428155
  O     -0.269431   -1.332497   -0.170734
  O      1.791813   -2.256772   -0.038247
  O      2.919086    0.379346    0.322487
  O      1.160157    2.529409   -0.424876
  O     -1.578983    2.033329    0.186391
  O     -3.162862   -1.750553    0.267202
  H     -2.429865   -0.944258   -1.407020
  H     -3.174579    0.242171   -0.296462
  H      1.430375   -2.630343   -0.857402
  H      3.447162   -0.428973    0.237206
  H      2.095139    2.667670   -0.213418
  H     -1.223998    2.905355   -0.046720
  H     -3.358127   -1.529247    1.188905

 Total Charge           Charge          ....    0
 Multiplicity           Mult            ....    1
 Number of Electrons    NEL             ....   96
 Basis Dimension        Dim             ....  318

ORBITAL ENERGIES
----------------

  NO   OCC          E(Eh)            E(eV)
   0   2.0000     -18.977272      -516.3978
   1   2.0000     -18.968606      -516.1620
   2   2.0000     -18.962475      -515.9952
   3   2.0000     -18.961357      -515.9647
   4   2.0000     -18.961032      -515.9559
   5   2.0000     -18.956419      -515.8304
   6   2.0000     -10.136922      -275.8397
   7   2.0000     -10.091246      -274.5968
   8   2.0000     -10.089264      -274.5428
   9   2.0000     -10.086913      -274.4789
  10   2.0000     -10.083542      -274.3871
  11   2.0000     -10.076746      -274.2022
  12   2.0000      -1.056335       -28.7443
  13   2.0000      -1.014543       -27.6071
  14   2.0000      -1.004650       -27.3379
  15   2.0000      -0.994655       -27.0659
  16   2.0000      -0.986580       -26.8462
  17   2.0000      -0.982210       -26.7273
  18   2.0000      -0.751194       -20.4410
  19   2.0000      -0.734452       -19.9854
  20   2.0000      -0.652250       -17.7486
  21   2.0000      -0.616593       -16.7783
  22   2.0000      -0.592236       -16.1156
  23   2.0000      -0.561522       -15.2798
  24   2.0000      -0.527488       -14.3537
  25   2.0000      -0.507180       -13.8011
  26   2.0000      -0.496142       -13.5007
  27   2.0000      -0.475203       -12.9309
  28   2.0000      -0.467906       -12.7324
  29   2.0000      -0.452849       -12.3227
  30   2.0000      -0.434855       -11.8330
  31   2.0000      -0.420052       -11.4302
  32   2.0000      -0.417372       -11.3573
  33   2.0000      -0.398078       -10.8323
  34   2.0000      -0.381765       -10.3884
  35   2.0000      -0.366333        -9.9684
  36   2.0000      -0.356072        -9.6892
  37   2.0000      -0.347366        -9.4523
  38   2.0000      -0.336296        -9.1511
  39   2.0000      -0.323375        -8.7995
  40   2.0000      -0.313882        -8.5412
  41   2.0000      -0.297324        -8.0906
  42   2.0000      -0.281491        -7.6598
  43   2.0000      -0.265098        -7.2137
  44   2.0000      -0.254826        -6.9342
  45   2.0000      -0.248885        -6.7725
  46   2.0000      -0.239801        -6.5253
  47   2.0000      -0.225305        -6.1309
  48   0.0000       0.041855         1.1389
  49   0.0000       0.063291         1.7222
  50   0.0000       0.076184         2.0731
  51   0.0000       0.092263         2.5106
  52   0.0000       0.098051         2.6681

MULLIKEN ATOMIC CHARGES
-----------------------
   0 C :   -0.298605
   1 C :   -0.055150
   2 H :    0.198925
   3 C :    0.014157
   4 H :    0.184942
   5 C :   -0.026773
   6 H :    0.184232
   7 C :    0.082721
   8 H :    0.184647
   9 C :   -0.118909
  10 H :    0.176386
  11 O :   -0.233902
  12 O :   -0.438074
  13 O :   -0.499045
  14 O :   -0.497751
  15 O :   -0.504107
  16 O :   -0.479098
  17 H :    0.171713
  18 H :    0.170003
  19 H :    0.375809
  20 H :    0.348707
  21 H :    0.352468
  22 H :    0.352310
  23 H :    0.354393
Sum of atomic charges:    0.0000000

LOEWDIN ATOMIC CHARGES
----------------------
   0 C :    0.042300
   1 C :    0.121770
   2 H :    0.198176
   3 C :    0.116418
   4 H :    0.192251
   5 C :    0.108400
   6 H :    0.193076
   7 C :    0.109775
   8 H :    0.191067
   9 C :    0.296519
  10 H :    0.201936
  11 O :   -0.693196
  12 O :   -0.515752
  13 O :   -0.596013
  14 O :   -0.597292
  15 O :   -0.607293
  16 O :   -0.620195
  17 H :    0.194562
  18 H :    0.185970
  19 H :    0.301988
  20 H :    0.296016
  21 H :    0.295662
  22 H :    0.296756
  23 H :    0.287098

  Mayer bond orders larger than 0.100000
B(  0-C ,  1-C ) :   0.9057 B(  0-C , 16-O ) :   1.0092 B(  0-C , 17-H ) :   0.9797
B(  0-C , 18-H ) :   0.9743 B(  1-C ,  2-H ) :   0.9518 B(  1-C ,  3-C ) :   0.8720
B(  1-C , 11-O ) :   0.7902 B(  3-C ,  4-H ) :   0.9535 B(  3-C ,  5-C ) :   0.8879
B(  3-C , 15-O ) :   0.8397 B(  5-C ,  6-H ) :   0.9721 B(  5-C ,  7-C ) :   0.8786
B(  5-C , 14-O ) :   0.8997 B(  7-C ,  8-H ) :   0.9529 B(  7-C ,  9-C ) :   0.7827
B(  7-C , 13-O ) :   0.8793 B(  9-C , 10-H ) :   0.9931 B(  9-C , 11-O ) :   0.9535
B(  9-C , 12-O ) :   1.0843 B( 12-O , 19-H ) :   0.8389 B( 13-O , 20-H ) :   0.8594
B( 14-O , 21-H ) :   0.8603 B( 15-O , 22-H ) :   0.8607 B( 16-O , 23-H ) :   0.8648

Dispersion correction           -0.007933380
FINAL SINGLE POINT ENERGY      -687.108333598985

DIPOLE MOMENT
-------------

Method             : SCF
Type of density    : Electron Density
Multiplicity       :   1
Irrep              :   0
Energy             :  -687.1197577077007281 Eh
Relativity type    :
Basis              : AO
                                X                 Y                 Z
Electronic contribution:      2.153246375      -0.858759853       0.142074342
Nuclear contribution   :     -1.551270889       1.370740060      -0.102715229
                        -----------------------------------------
Total Dipole Moment    :      0.601975486       0.511980207       0.039359114
                        -----------------------------------------
Magnitude (a.u.)       :      0.791231545
Magnitude (Debye)      :      2.011150760

Rotational constants in cm-1:             0.039636             0.025569             0.016290
Rotational constants in MHz :          1188.264959           766.528682           488.370323

                             ****ORCA TERMINATED NORMALLY****
TOTAL RUN TIME: 0 days 0 hours 0 minutes 51 seconds 932 msec
