                         Program Version 6.0.0  -   RELEASE  -
|  1> ! wb97x-v def2-tzvp def2/J RIJCOSX DEFGRID2 scfconv7 GCP(DFT/TZ) printgap
|  2> %output
|  3>     printlevel normal
|  4> end
|  5> * xyz 0 1
|  6> C -1.963084135130531 0.7218203741583296 1.3079919922861278
|  7> C -1.4142053748409373 0.3110173156633729 -0.061215927349389646
|  8> C -2.5424901630346124 -0.25523743365370216 -0.9262073331397935
|  9> C -0.2560210764314942 -0.7045147047092357 0.06790674900110744
| 10> C 1.1790577868255085 -0.15055575660773138 -0.07509869689979955
| 11> C 1.4113188397290524 0.35837993258275114 -1.503621587304811
| 12> C 1.447782765272478 0.9827380378406659 0.9212811994668495
| 13> C 2.159757289531546 -1.2971240590449 0.2026342452159719
| 14> H -2.734448540555411 1.494490940991801 1.209971536611434
| 15> H -2.416777290096575 -0.1428294936177689 1.8087138217577798
| 16> H -1.1770604355607766 1.110692447299565 1.9627156057765798
| 17> H -1.0375370224709342 1.214215135307085 -0.5587669597139959
| 18> H -2.187426571962328 -0.49322602630551937 -1.935312845543213
| 19> H -2.9413227264581576 -1.1776947746968245 -0.48494638254481875
| 20> H -3.370806518007322 0.4570261893729233 -1.017031038905754
| 21> H -0.33706939015747595 -1.211667723060184 1.0401188105291206
| 22> H -0.3736438805242878 -1.4871844445975497 -0.6941557797475207
| 23> H 2.439677998847228 0.7201182627942023 -1.619914363476992
| 24> H 0.739651728867127 1.1859546774667977 -1.7560710639147994
| 25> H 1.250068006478507 -0.4434472472352455 -2.2339055943106123
| 26> H 0.7889264076490329 1.8401252115771956 0.7465959035866097
| 27> H 2.4819619108889324 1.3341721156166628 0.8250807367342741
| 28> H 1.3011153832658702 0.6440735170132894 1.9535203727279336
| 29> H 1.992846857425871 -2.1321164127723202 -0.48809701309163805
| 30> H 2.0414249495026633 -1.6744723289426713 1.225017007189723
| 31> H 3.1967517483151835 -0.9621137969350385 0.08323833899838323
| 32> *
| 33>
| 34>                          ****END OF INPUT****

CARTESIAN COORDINATES (ANGSTROEM)
---------------------------------
  C     -1.963084    0.721820    1.307992
  C     -1.414205    0.311017   -0.061216
  C     -2.542490   -0.255237   -0.926207
  C     -0.256021   -0.704515    0.067907
  C      1.179058   -0.150556   -0.075099
  C      1.411319    0.358380   -1.503622
  C      1.447783    0.982738    0.921281
  C      2.159757   -1.297124    0.202634
  H     -2.734449    1.494491    1.209972
  H     -2.416777   -0.142829    1.808714
  H     -1.177060    1.110692    1.962716
  H     -1.037537    1.214215   -0.558767
  H     -2.187427   -0.493226   -1.935313
  H     -2.941323   -1.177695   -0.484946
  H     -3.370807    0.457026   -1.017031
  H     -0.337069   -1.211668    1.040119
  H     -0.373644   -1.487184   -0.694156
  H      2.439678    0.720118   -1.619914
  H      0.739652    1.185955   -1.756071
  H      1.250068   -0.443447   -2.233906
  H      0.788926    1.840125    0.746596
  H      2.481962    1.334172    0.825081
  H      1.301115    0.644074    1.953520
  H      1.992847   -2.132116   -0.488097
  H      2.041425   -1.674472    1.225017
  H      3.196752   -0.962114    0.083238

 Total Charge           Charge          ....    0
 Multiplicity           Mult            ....    1
 Number of Electrons    NEL             ....   66
 Basis Dimension        Dim             ....  356

ORBITAL ENERGIES
----------------

  NO   OCC          E(Eh)            E(eV)
   0   2.0000     -12.054122      -328.0093
   1   2.0000     -12.045155      -327.7653
   2   2.0000     -12.033227      -327.4407
   3   2.0000     -12.030279      -327.3605
   4   2.0000     -12.030065      -327.3547
   5   2.0000     -12.029793      -327.3473
   6   2.0000     -12.029372      -327.3359
   7   2.0000     -12.029271      -327.3331
   8   2.0000      -1.336780       -36.3756
   9   2.0000      -1.291716       -35.1494
  10   2.0000      -1.176478       -32.0136
  11   2.0000      -1.174249       -31.9529
  12   2.0000      -1.170134       -31.8410
  13   2.0000      -1.169202       -31.8156
  14   2.0000      -1.044259       -28.4157
  15   2.0000      -0.995545       -27.0902
  16   2.0000      -0.901617       -24.5343
  17   2.0000      -0.886556       -24.1244
  18   2.0000      -0.881185       -23.9783
  19   2.0000      -0.858264       -23.3546
  20   2.0000      -0.849634       -23.1197
  21   2.0000      -0.842622       -22.9289
  22   2.0000      -0.812266       -22.1029
  23   2.0000      -0.808754       -22.0073
  24   2.0000      -0.805219       -21.9111
  25   2.0000      -0.791542       -21.5389
  26   2.0000      -0.787486       -21.4286
  27   2.0000      -0.783544       -21.3213
  28   2.0000      -0.771658       -20.9979
  29   2.0000      -0.767736       -20.8912
  30   2.0000      -0.753107       -20.4931
  31   2.0000      -0.750029       -20.4093
  32   2.0000      -0.736917       -20.0525
  33   0.0000      -0.051536        -1.4024
  34   0.0000      -0.037820        -1.0291
  35   0.0000      -0.028454        -0.7743
  36   0.0000      -0.022949        -0.6245
  37   0.0000      -0.016811        -0.4574

MULLIKEN ATOMIC CHARGES
-----------------------
   0 C :   -0.365443
   1 C :    0.013312
   2 C :   -0.358051
   3 C :   -0.226651
   4 C :    0.082733
   5 C :   -0.350818
   6 C :   -0.381067
   7 C :   -0.346937
   8 H :    0.108225
   9 H :    0.106705
  10 H :    0.117208
  11 H :    0.064370
  12 H :    0.112198
  13 H :    0.108091
  14 H :    0.109186
  15 H :    0.098319
  16 H :    0.103720
  17 H :    0.110757
  18 H :    0.108077
  19 H :    0.108943
  20 H :    0.118255
  21 H :    0.114287
  22 H :    0.115152
  23 H :    0.109221
  24 H :    0.109536
  25 H :    0.110671
Sum of atomic charges:    0.0000000

LOEWDIN ATOMIC CHARGES
----------------------
   0 C :   -0.286016
   1 C :   -0.303843
   2 C :   -0.286202
   3 C :   -0.195809
   4 C :   -0.361149
   5 C :   -0.257790
   6 C :   -0.258890
   7 C :   -0.259670
   8 H :    0.116736
   9 H :    0.118535
  10 H :    0.116631
  11 H :    0.143703
  12 H :    0.116654
  13 H :    0.119076
  14 H :    0.116591
  15 H :    0.140677
  16 H :    0.140842
  17 H :    0.120718
  18 H :    0.117453
  19 H :    0.120615
  20 H :    0.120381
  21 H :    0.121161
  22 H :    0.120307
  23 H :    0.120114
  24 H :    0.119542
  25 H :    0.119634

  Mayer bond orders larger than 0.100000
B(  0-C ,  1-C ) :   0.9777 B(  0-C ,  8-H ) :   0.9850 B(  0-C ,  9-H ) :   0.9763
B(  0-C , 10-H ) :   0.9821 B(  1-C ,  2-C ) :   0.9665 B(  1-C ,  3-C ) :   0.9076
B(  1-C , 11-H ) :   0.9822 B(  2-C , 12-H ) :   0.9837 B(  2-C , 13-H ) :   0.9787
B(  2-C , 14-H ) :   0.9864 B(  3-C ,  4-C ) :   0.9719 B(  3-C , 15-H ) :   0.9678
B(  3-C , 16-H ) :   0.9824 B(  4-C ,  5-C ) :   0.9925 B(  4-C ,  6-C ) :   0.9613
B(  4-C ,  7-C ) :   0.9821 B(  5-C , 17-H ) :   0.9804 B(  5-C , 18-H ) :   0.9708
B(  5-C , 19-H ) :   0.9793 B(  6-C , 20-H ) :   0.9757 B(  6-C , 21-H ) :   0.9784
B(  6-C , 22-H ) :   0.9823 B(  7-C , 23-H ) :   0.9768 B(  7-C , 24-H ) :   0.9761
B(  7-C , 25-H ) :   0.9822

FINAL SINGLE POINT ENERGY      -315.714233780310

DIPOLE MOMENT
-------------

Method             : SCF
Type of density    : Electron Density
Multiplicity       :   1
Irrep              :   0
Energy             :  -315.7335450829100978 Eh
Relativity type    :
Basis              : AO
                                X                 Y                 Z
Electronic contribution:      0.333806151      -0.252712073      -0.187900450
Nuclear contribution   :     -0.310478410       0.277341265       0.170468470
                        -----------------------------------------
Total Dipole Moment    :      0.023327741       0.024629193      -0.017431980
                        -----------------------------------------
Magnitude (a.u.)       :      0.038139934
Magnitude (Debye)      :      0.096944008

Rotational constants in cm-1:             0.097580             0.040771             0.036593
Rotational constants in MHz :          2925.371146          1222.293147          1097.033612

                             ****ORCA TERMINATED NORMALLY****
TOTAL RUN TIME: 0 days 0 hours 4 minutes 7 seconds 935 msec
