                         Program Version 6.0.0  -   RELEASE  -
|  1> ! wb97x-v def2-tzvp def2/J RIJCOSX DEFGRID2 scfconv7 GCP(DFT/TZ) printgap
|  2> %output
|  3>     printlevel normal
|  4> end
|  5> %cpcm
|  6>     smd true
|  7>     smdsolvent "water"
|  8> end
|  9> * xyz 0 1
| 10> C -1.963084135130531 0.7218203741583296 1.3079919922861278
| 11> C -1.4142053748409373 0.3110173156633729 -0.061215927349389646
| 12> C -2.5424901630346124 -0.25523743365370216 -0.9262073331397935
| 13> C -0.2560210764314942 -0.7045147047092357 0.06790674900110744
| 14> C 1.1790577868255085 -0.15055575660773138 -0.07509869689979955
| 15> C 1.4113188397290524 0.35837993258275114 -1.503621587304811
| 16> C 1.447782765272478 0.9827380378406659 0.9212811994668495
| 17> C 2.159757289531546 -1.2971240590449 0.2026342452159719
| 18> H -2.734448540555411 1.494490940991801 1.209971536611434
| 19> H -2.416777290096575 -0.1428294936177689 1.8087138217577798
| 20> H -1.1770604355607766 1.110692447299565 1.9627156057765798
| 21> H -1.0375370224709342 1.214215135307085 -0.5587669597139959
| 22> H -2.187426571962328 -0.49322602630551937 -1.935312845543213
| 23> H -2.9413227264581576 -1.1776947746968245 -0.48494638254481875
| 24> H -3.370806518007322 0.4570261893729233 -1.017031038905754
| 25> H -0.33706939015747595 -1.211667723060184 1.0401188105291206
| 26> H -0.3736438805242878 -1.4871844445975497 -0.6941557797475207
| 27> H 2.439677998847228 0.7201182627942023 -1.619914363476992
| 28> H 0.739651728867127 1.1859546774667977 -1.7560710639147994
| 29> H 1.250068006478507 -0.4434472472352455 -2.2339055943106123
| 30> H 0.7889264076490329 1.8401252115771956 0.7465959035866097
| 31> H 2.4819619108889324 1.3341721156166628 0.8250807367342741
| 32> H 1.3011153832658702 0.6440735170132894 1.9535203727279336
| 33> H 1.992846857425871 -2.1321164127723202 -0.48809701309163805
| 34> H 2.0414249495026633 -1.6744723289426713 1.225017007189723
| 35> H 3.1967517483151835 -0.9621137969350385 0.08323833899838323
| 36> *
| 37>
| 38>                          ****END OF INPUT****

CARTESIAN COORDINATES (ANGSTROEM)
---------------------------------
  C     -1.963084    0.721820    1.307992
  C     -1.414205    0.311017   -0.061216
  C     -2.542490   -0.255237   -0.926207
  C     -0.256021   -0.704515    0.067907
  C      1.179058   -0.150556   -0.075099
  C      1.411319    0.358380   -1.503622
  C      1.447783    0.982738    0.921281
  C      2.159757   -1.297124    0.202634
  H     -2.734449    1.494491    1.209972
  H     -2.416777   -0.142829    1.808714
  H     -1.177060    1.110692    1.962716
  H     -1.037537    1.214215   -0.558767
  H     -2.187427   -0.493226   -1.935313
  H     -2.941323   -1.177695   -0.484946
  H     -3.370807    0.457026   -1.017031
  H     -0.337069   -1.211668    1.040119
  H     -0.373644   -1.487184   -0.694156
  H      2.439678    0.720118   -1.619914
  H      0.739652    1.185955   -1.756071
  H      1.250068   -0.443447   -2.233906
  H      0.788926    1.840125    0.746596
  H      2.481962    1.334172    0.825081
  H      1.301115    0.644074    1.953520
  H      1.992847   -2.132116   -0.488097
  H      2.041425   -1.674472    1.225017
  H      3.196752   -0.962114    0.083238

 Total Charge           Charge          ....    0
 Multiplicity           Mult            ....    1
 Number of Electrons    NEL             ....   66
 Basis Dimension        Dim             ....  356

ORBITAL ENERGIES
----------------

  NO   OCC          E(Eh)            E(eV)
   0   2.0000     -12.045314      -327.7697
   1   2.0000     -12.035760      -327.5097
   2   2.0000     -12.023519      -327.1766
   3   2.0000     -12.021733      -327.1280
   4   2.0000     -12.020632      -327.0980
   5   2.0000     -12.020400      -327.0917
   6   2.0000     -12.020059      -327.0824
   7   2.0000     -12.019630      -327.0708
   8   2.0000      -1.327424       -36.1210
   9   2.0000      -1.282787       -34.9064
  10   2.0000      -1.167411       -31.7669
  11   2.0000      -1.165379       -31.7116
  12   2.0000      -1.161874       -31.6162
  13   2.0000      -1.160411       -31.5764
  14   2.0000      -1.035602       -28.1802
  15   2.0000      -0.986538       -26.8451
  16   2.0000      -0.892314       -24.2811
  17   2.0000      -0.877318       -23.8730
  18   2.0000      -0.872223       -23.7344
  19   2.0000      -0.849433       -23.1142
  20   2.0000      -0.840800       -22.8793
  21   2.0000      -0.833664       -22.6852
  22   2.0000      -0.803306       -21.8591
  23   2.0000      -0.799760       -21.7626
  24   2.0000      -0.796830       -21.6829
  25   2.0000      -0.782234       -21.2857
  26   2.0000      -0.778704       -21.1896
  27   2.0000      -0.774551       -21.0766
  28   2.0000      -0.762902       -20.7596
  29   2.0000      -0.758680       -20.6447
  30   2.0000      -0.743912       -20.2429
  31   2.0000      -0.741008       -20.1639
  32   2.0000      -0.727561       -19.7979
  33   0.0000      -0.042320        -1.1516
  34   0.0000      -0.026784        -0.7288
  35   0.0000      -0.019105        -0.5199
  36   0.0000      -0.013567        -0.3692
  37   0.0000      -0.006667        -0.1814

MULLIKEN ATOMIC CHARGES
-----------------------
   0 C :   -0.421186
   1 C :    0.026334
   2 C :   -0.413768
   3 C :   -0.263018
   4 C :    0.141536
   5 C :   -0.418189
   6 C :   -0.436829
   7 C :   -0.414953
   8 H :    0.123540
   9 H :    0.120135
  10 H :    0.130012
  11 H :    0.082473
  12 H :    0.126896
  13 H :    0.120930
  14 H :    0.124465
  15 H :    0.110014
  16 H :    0.115602
  17 H :    0.126760
  18 H :    0.126342
  19 H :    0.124383
  20 H :    0.132312
  21 H :    0.130158
  22 H :    0.128762
  23 H :    0.124747
  24 H :    0.125309
  25 H :    0.127231
Sum of atomic charges:    0.0000000

LOEWDIN ATOMIC CHARGES
----------------------
   0 C :   -0.293064
   1 C :   -0.303147
   2 C :   -0.293831
   3 C :   -0.197691
   4 C :   -0.358716
   5 C :   -0.264895
   6 C :   -0.264733
   7 C :   -0.267410
   8 H :    0.118263
   9 H :    0.119987
  10 H :    0.118195
  11 H :    0.147689
  12 H :    0.118524
  13 H :    0.120402
  14 H :    0.118188
  15 H :    0.141996
  16 H :    0.142369
  17 H :    0.122444
  18 H :    0.120244
  19 H :    0.122493
  20 H :    0.122742
  21 H :    0.122583
  22 H :    0.122400
  23 H :    0.121896
  24 H :    0.121425
  25 H :    0.121647

  Mayer bond orders larger than 0.100000
B(  0-C ,  1-C ) :   0.9670 B(  0-C ,  8-H ) :   0.9835 B(  0-C ,  9-H ) :   0.9757
B(  0-C , 10-H ) :   0.9803 B(  1-C ,  2-C ) :   0.9553 B(  1-C ,  3-C ) :   0.9062
B(  1-C , 11-H ) :   0.9823 B(  2-C , 12-H ) :   0.9817 B(  2-C , 13-H ) :   0.9773
B(  2-C , 14-H ) :   0.9849 B(  3-C ,  4-C ) :   0.9693 B(  3-C , 15-H ) :   0.9686
B(  3-C , 16-H ) :   0.9825 B(  4-C ,  5-C ) :   0.9752 B(  4-C ,  6-C ) :   0.9503
B(  4-C ,  7-C ) :   0.9610 B(  5-C , 17-H ) :   0.9798 B(  5-C , 18-H ) :   0.9706
B(  5-C , 19-H ) :   0.9785 B(  6-C , 20-H ) :   0.9749 B(  6-C , 21-H ) :   0.9776
B(  6-C , 22-H ) :   0.9801 B(  7-C , 23-H ) :   0.9771 B(  7-C , 24-H ) :   0.9764
B(  7-C , 25-H ) :   0.9811

FINAL SINGLE POINT ENERGY      -315.710057218100

DIPOLE MOMENT
-------------

Method             : SCF
Type of density    : Electron Density
Multiplicity       :   1
Irrep              :   0
Energy             :  -315.7293685207002341 Eh
Relativity type    :
Basis              : AO
                                X                 Y                 Z
Electronic contribution:      0.340601250      -0.233204554      -0.196181197
Nuclear contribution   :     -0.310478410       0.277341265       0.170468470
                        -----------------------------------------
Total Dipole Moment    :      0.030122840       0.044136711      -0.025712726
                        -----------------------------------------
Magnitude (a.u.)       :      0.059300751
Magnitude (Debye)      :      0.150730531

Rotational constants in cm-1:             0.097580             0.040771             0.036593
Rotational constants in MHz :          2925.371146          1222.293147          1097.033612

                             ****ORCA TERMINATED NORMALLY****
TOTAL RUN TIME: 0 days 0 hours 4 minutes 23 seconds 306 msec
