                         Program Version 6.0.0  -   RELEASE  -
|  1> ! pbe def2-sv(p) def2/J RI DEFGRID1 loosescf d4 GCP(DFT/SV(P)) printgap
|  2> %output
|  3>     printlevel normal
|  4> end
|  5> * xyz 0 1
|  6> C -2.9021063611 -0.0581768893 0.0020669198
|  7> O -1.6630325285 0.6638750976 0.0011648653
|  8> C -0.5459191365 -0.0437672365 -0.0014672468
|  9> O -0.5020252359 -1.2504330196 -0.0023198159
| 10> C 0.6529719979 0.8822372246 -0.0037748422
| 11> Cl 2.1607706234 -0.0662450259 0.0017744209
| 12> H -3.6776561542 0.7007276647 0.0033158162
| 13> H -2.965723183 -0.687800107 0.8896493067
| 14> H -2.9675444503 -0.6868045794 -0.8861061339
| 15> H 0.6398293994 1.5121519413 0.8852469563
| 16> H 0.641854028 1.5043867259 -0.8983501533
| 17> *
| 18>
| 19>                          ****END OF INPUT****

CARTESIAN COORDINATES (ANGSTROEM)
---------------------------------
  C     -2.902106   -0.058177    0.002067
  O     -1.663033    0.663875    0.001165
  C     -0.545919   -0.043767   -0.001467
  O     -0.502025   -1.250433   -0.002320
  C      0.652972    0.882237   -0.003775
  Cl     2.160771   -0.066245    0.001774
  H     -3.677656    0.700728    0.003316
  H     -2.965723   -0.687800    0.889649
  H     -2.967544   -0.686805   -0.886106
  H      0.639829    1.512152    0.885247
  H      0.641854    1.504387   -0.898350

 Total Charge           Charge          ....    0
 Multiplicity           Mult            ....    1
 Number of Electrons    NEL             ....   56
 Basis Dimension        Dim             ....   98

ORBITAL ENERGIES
----------------

  NO   OCC          E(Eh)            E(eV)
   0   2.0000    -100.624062     -2738.1199
   1   2.0000     -18.815001      -511.9822
   2   2.0000     -18.748096      -510.1616
   3   2.0000     -10.020403      -272.6690
   4   2.0000      -9.957274      -270.9512
   5   2.0000      -9.952356      -270.8174
   6   2.0000      -9.159822      -249.2514
   7   2.0000      -6.992004      -190.2621
   8   2.0000      -6.979158      -189.9125
   9   2.0000      -6.979084      -189.9105
  10   2.0000      -1.021659       -27.8008
  11   2.0000      -0.925901       -25.1951
  12   2.0000      -0.781781       -21.2733
  13   2.0000      -0.693504       -18.8712
  14   2.0000      -0.617986       -16.8162
  15   2.0000      -0.518397       -14.1063
  16   2.0000      -0.467677       -12.7261
  17   2.0000      -0.459174       -12.4948
  18   2.0000      -0.427809       -11.6413
  19   2.0000      -0.416260       -11.3270
  20   2.0000      -0.383242       -10.4285
  21   2.0000      -0.373033       -10.1507
  22   2.0000      -0.347934        -9.4678
  23   2.0000      -0.319605        -8.6969
  24   2.0000      -0.273127        -7.4322
  25   2.0000      -0.252073        -6.8593
  26   2.0000      -0.249974        -6.8021
  27   2.0000      -0.234160        -6.3718
  28   0.0000      -0.032440        -0.8828
  29   0.0000       0.002430         0.0661
  30   0.0000       0.040613         1.1051
  31   0.0000       0.060401         1.6436
  32   0.0000       0.084331         2.2948

MULLIKEN ATOMIC CHARGES
-----------------------
   0 C :   -0.109040
   1 O :   -0.245617
   2 C :    0.123371
   3 O :   -0.177402
   4 C :   -0.175797
   5 Cl:   -0.113763
   6 H :    0.126104
   7 H :    0.125920
   8 H :    0.125870
   9 H :    0.160084
  10 H :    0.160270
Sum of atomic charges:   -0.0000000

LOEWDIN ATOMIC CHARGES
----------------------
   0 C :   -0.198948
   1 O :   -0.074528
   2 C :    0.002885
   3 O :   -0.144852
   4 C :   -0.307481
   5 Cl:    0.061099
   6 H :    0.123283
   7 H :    0.123083
   8 H :    0.123060
   9 H :    0.146133
  10 H :    0.146265

  Mayer bond orders larger than 0.100000
B(  0-C ,  1-O ) :   0.9297 B(  0-C ,  6-H ) :   0.9589 B(  0-C ,  7-H ) :   0.9523
B(  0-C ,  8-H ) :   0.9523 B(  1-O ,  2-C ) :   1.2088 B(  2-C ,  3-O ) :   2.1180
B(  2-C ,  4-C ) :   0.9555 B(  4-C ,  5-Cl) :   1.0972 B(  4-C ,  9-H ) :   0.9090
B(  4-C , 10-H ) :   0.9088

Dispersion correction           -0.008178936
FINAL SINGLE POINT ENERGY      -727.081934248703

DIPOLE MOMENT
-------------

Method             : SCF
Type of density    : Electron Density
Multiplicity       :   1
Irrep              :   0
Energy             :  -727.1238250476649227 Eh
Relativity type    :
Basis              : AO
                                X                 Y                 Z
Electronic contribution:      9.744206402      -1.419672913       0.006672355
Nuclear contribution   :    -10.746512126       2.278051694      -0.008256871
                        -----------------------------------------
Total Dipole Moment    :     -1.002305724       0.858378781      -0.001584516
                        -----------------------------------------
Magnitude (a.u.)       :      1.319633816
Magnitude (Debye)      :      3.354242594

Rotational constants in cm-1:             0.331442             0.046949             0.041774
Rotational constants in MHz :          9936.376933          1407.487336          1252.364562

                             ****ORCA TERMINATED NORMALLY****
TOTAL RUN TIME: 0 days 0 hours 0 minutes 5 seconds 635 msec
