                         Program Version 6.0.0  -   RELEASE  -
|  1> ! pbe def2-sv(p) def2/J RI DEFGRID1 loosescf d4 GCP(DFT/SV(P)) printgap
|  2> %output
|  3>     printlevel normal
|  4> end
|  5> * xyz 0 1
|  6> C 2.0456579666 0.9566328782 -0.6138867417
|  7> C 1.1619437284 -0.1915569982 -0.1448789811
|  8> C 1.8125681577 -1.001244285 0.9697276511
|  9> O -0.0649441933 0.3788830776 0.3674150589
| 10> C -1.230272823 -0.0126420598 -0.1211396546
| 11> O -1.3556771315 -0.851157296 -0.9925853791
| 12> C -2.370424262 0.7155832052 0.5283232481
| 13> H 1.5506763695 1.5164813046 -1.4031226857
| 14> H 2.2489636904 1.6258474605 0.2174486126
| 15> H 2.9817749559 0.5617770887 -0.9948146766
| 16> H 0.8960505631 -0.8443143195 -0.9859046165
| 17> H 2.0228864056 -0.3562591368 1.818444337
| 18> H 2.7395591166 -1.4353513238 0.6095724773
| 19> H 1.1498231754 -1.8013072294 1.2904275517
| 20> H -2.8142797507 1.3865862413 -0.2034540643
| 21> H -2.0108610168 1.2820866384 1.3802021114
| 22> H -3.1293108298 -0.0011318559 0.828800079
| 23> *
| 24>
| 25>                          ****END OF INPUT****

CARTESIAN COORDINATES (ANGSTROEM)
---------------------------------
  C      2.045658    0.956633   -0.613887
  C      1.161944   -0.191557   -0.144879
  C      1.812568   -1.001244    0.969728
  O     -0.064944    0.378883    0.367415
  C     -1.230273   -0.012642   -0.121140
  O     -1.355677   -0.851157   -0.992585
  C     -2.370424    0.715583    0.528323
  H      1.550676    1.516481   -1.403123
  H      2.248964    1.625847    0.217449
  H      2.981775    0.561777   -0.994815
  H      0.896051   -0.844314   -0.985905
  H      2.022886   -0.356259    1.818444
  H      2.739559   -1.435351    0.609572
  H      1.149823   -1.801307    1.290428
  H     -2.814280    1.386586   -0.203454
  H     -2.010861    1.282087    1.380202
  H     -3.129311   -0.001132    0.828800

 Total Charge           Charge          ....    0
 Multiplicity           Mult            ....    1
 Number of Electrons    NEL             ....   56
 Basis Dimension        Dim             ....  118

ORBITAL ENERGIES
----------------

  NO   OCC          E(Eh)            E(eV)
   0   2.0000     -18.794670      -511.4290
   1   2.0000     -18.726160      -509.5647
   2   2.0000     -10.006403      -272.2881
   3   2.0000      -9.951084      -270.7828
   4   2.0000      -9.891782      -269.1691
   5   2.0000      -9.885993      -269.0116
   6   2.0000      -9.885712      -269.0039
   7   2.0000      -1.001562       -27.2539
   8   2.0000      -0.904747       -24.6194
   9   2.0000      -0.728545       -19.8247
  10   2.0000      -0.667302       -18.1582
  11   2.0000      -0.626979       -17.0610
  12   2.0000      -0.569097       -15.4859
  13   2.0000      -0.495134       -13.4733
  14   2.0000      -0.436079       -11.8663
  15   2.0000      -0.426746       -11.6123
  16   2.0000      -0.413278       -11.2459
  17   2.0000      -0.390790       -10.6339
  18   2.0000      -0.381560       -10.3828
  19   2.0000      -0.372086       -10.1250
  20   2.0000      -0.354296        -9.6409
  21   2.0000      -0.351071        -9.5531
  22   2.0000      -0.334393        -9.0993
  23   2.0000      -0.322447        -8.7742
  24   2.0000      -0.312604        -8.5064
  25   2.0000      -0.283946        -7.7266
  26   2.0000      -0.250726        -6.8226
  27   2.0000      -0.214719        -5.8428
  28   0.0000      -0.016076        -0.4374
  29   0.0000       0.037330         1.0158
  30   0.0000       0.060705         1.6519
  31   0.0000       0.075664         2.0589
  32   0.0000       0.085916         2.3379

MULLIKEN ATOMIC CHARGES
-----------------------
   0 C :   -0.241901
   1 C :   -0.023461
   2 C :   -0.244226
   3 O :   -0.235926
   4 C :    0.084501
   5 O :   -0.216588
   6 C :   -0.251485
   7 H :    0.111579
   8 H :    0.104074
   9 H :    0.106831
  10 H :    0.101825
  11 H :    0.103555
  12 H :    0.107243
  13 H :    0.113636
  14 H :    0.134342
  15 H :    0.115217
  16 H :    0.130783
Sum of atomic charges:    0.0000000

LOEWDIN ATOMIC CHARGES
----------------------
   0 C :   -0.338353
   1 C :   -0.048630
   2 C :   -0.338653
   3 O :   -0.061683
   4 C :    0.028116
   5 O :   -0.179483
   6 C :   -0.360144
   7 H :    0.125447
   8 H :    0.122924
   9 H :    0.127476
  10 H :    0.119778
  11 H :    0.122586
  12 H :    0.127608
  13 H :    0.126506
  14 H :    0.148624
  15 H :    0.132808
  16 H :    0.145072

  Mayer bond orders larger than 0.100000
B(  0-C ,  1-C ) :   1.1247 B(  0-C ,  7-H ) :   0.9475 B(  0-C ,  8-H ) :   0.9429
B(  0-C ,  9-H ) :   0.9467 B(  1-C ,  2-C ) :   1.1305 B(  1-C ,  3-O ) :   0.8814
B(  1-C , 10-H ) :   0.8859 B(  2-C , 11-H ) :   0.9431 B(  2-C , 12-H ) :   0.9467
B(  2-C , 13-H ) :   0.9466 B(  3-O ,  4-C ) :   1.2132 B(  4-C ,  5-O ) :   2.0468
B(  4-C ,  6-C ) :   1.0758 B(  6-C , 14-H ) :   0.9277 B(  6-C , 15-H ) :   0.9383
B(  6-C , 16-H ) :   0.9342

Dispersion correction           -0.012130260
FINAL SINGLE POINT ENERGY      -346.248526870572

DIPOLE MOMENT
-------------

Method             : SCF
Type of density    : Electron Density
Multiplicity       :   1
Irrep              :   0
Energy             :  -346.3127233208770690 Eh
Relativity type    :
Basis              : AO
                                X                 Y                 Z
Electronic contribution:     -4.825814605      -1.368067995      -1.935733467
Nuclear contribution   :      5.265775026       1.807802572       2.390186741
                        -----------------------------------------
Total Dipole Moment    :      0.439960421       0.439734577       0.454453274
                        -----------------------------------------
Magnitude (a.u.)       :      0.770363193
Magnitude (Debye)      :      1.958107622

Rotational constants in cm-1:             0.156892             0.052185             0.050696
Rotational constants in MHz :          4703.493571          1564.479162          1519.820643

                             ****ORCA TERMINATED NORMALLY****
TOTAL RUN TIME: 0 days 0 hours 0 minutes 8 seconds 489 msec
