                         Program Version 6.0.0  -   RELEASE  -
|  1> ! r2scan-3c def2/J RI DEFGRID2 scfconv6 printgap
|  2> %output
|  3>     printlevel normal
|  4> end
|  5> * xyz 0 1
|  6> C -2.5642048504 -0.8718259181 0.29360333
|  7> C -1.1347082529 -0.4266184282 0.6335259905
|  8> H -1.0282682967 -0.3403516932 1.7251771374
|  9> C -0.8223918791 0.9396522555 0.0106958633
| 10> H -1.0645364043 0.8935095566 -1.0638991832
| 11> C 0.6677226052 1.2903738123 0.1798040963
| 12> H 0.8769912102 1.4544718884 1.2436627473
| 13> C 1.5434055029 0.1376503639 -0.3165984301
| 14> H 1.4018515522 0.0054997775 -1.4016091522
| 15> C 1.0967130724 -1.1671295785 0.367707615
| 16> H 1.2716230279 -1.0694569846 1.4598263243
| 17> O -0.2660339607 -1.4281145108 0.1364065497
| 18> O 1.8360767856 -2.2002760792 -0.1725388116
| 19> O 2.8841257012 0.4224623542 -0.0215801343
| 20> O 0.9556269082 2.516730894 -0.4417826811
| 21> O -1.6294251078 1.8967633065 0.648560233
| 22> O -2.7398954304 -1.0776164604 -1.0828287349
| 23> H -3.2526627958 -0.0781471451 0.586057168
| 24> H -2.7932779034 -1.7854761263 0.8546012766
| 25> H 1.4835442702 -3.0532470786 0.1255190103
| 26> H 3.4298238115 -0.3367049971 -0.2780849272
| 27> H 1.032317288 2.39557727 -1.3994381031
| 28> H -1.2993216292 2.778005698 0.411075031
| 29> H -2.1139034851 -1.7598675973 -1.3680174958
| 30> *
| 31>
| 32>                          ****END OF INPUT****

CARTESIAN COORDINATES (ANGSTROEM)
---------------------------------
  C     -2.564205   -0.871826    0.293603
  C     -1.134708   -0.426618    0.633526
  H     -1.028268   -0.340352    1.725177
  C     -0.822392    0.939652    0.010696
  H     -1.064536    0.893510   -1.063899
  C      0.667723    1.290374    0.179804
  H      0.876991    1.454472    1.243663
  C      1.543406    0.137650   -0.316598
  H      1.401852    0.005500   -1.401609
  C      1.096713   -1.167130    0.367708
  H      1.271623   -1.069457    1.459826
  O     -0.266034   -1.428115    0.136407
  O      1.836077   -2.200276   -0.172539
  O      2.884126    0.422462   -0.021580
  O      0.955627    2.516731   -0.441783
  O     -1.629425    1.896763    0.648560
  O     -2.739895   -1.077616   -1.082829
  H     -3.252663   -0.078147    0.586057
  H     -2.793278   -1.785476    0.854601
  H      1.483544   -3.053247    0.125519
  H      3.429824   -0.336705   -0.278085
  H      1.032317    2.395577   -1.399438
  H     -1.299322    2.778006    0.411075
  H     -2.113903   -1.759868   -1.368017

 Total Charge           Charge          ....    0
 Multiplicity           Mult            ....    1
 Number of Electrons    NEL             ....   96
 Basis Dimension        Dim             ....  318

ORBITAL ENERGIES
----------------

  NO   OCC          E(Eh)            E(eV)
   0   2.0000     -18.982949      -516.5523
   1   2.0000     -18.982095      -516.5291
   2   2.0000     -18.966505      -516.1048
   3   2.0000     -18.962460      -515.9948
   4   2.0000     -18.957096      -515.8488
   5   2.0000     -18.952145      -515.7141
   6   2.0000     -10.149521      -276.1825
   7   2.0000     -10.097946      -274.7791
   8   2.0000     -10.096881      -274.7501
   9   2.0000     -10.095025      -274.6996
  10   2.0000     -10.089128      -274.5391
  11   2.0000     -10.080620      -274.3076
  12   2.0000      -1.064469       -28.9657
  13   2.0000      -1.017088       -27.6764
  14   2.0000      -1.008977       -27.4557
  15   2.0000      -0.995483       -27.0885
  16   2.0000      -0.987790       -26.8791
  17   2.0000      -0.985192       -26.8084
  18   2.0000      -0.754233       -20.5237
  19   2.0000      -0.742769       -20.2118
  20   2.0000      -0.660834       -17.9822
  21   2.0000      -0.624328       -16.9888
  22   2.0000      -0.598270       -16.2798
  23   2.0000      -0.567603       -15.4453
  24   2.0000      -0.538269       -14.6470
  25   2.0000      -0.515286       -14.0217
  26   2.0000      -0.495468       -13.4824
  27   2.0000      -0.480149       -13.0655
  28   2.0000      -0.464353       -12.6357
  29   2.0000      -0.463170       -12.6035
  30   2.0000      -0.450511       -12.2590
  31   2.0000      -0.438305       -11.9269
  32   2.0000      -0.408185       -11.1073
  33   2.0000      -0.397550       -10.8179
  34   2.0000      -0.384315       -10.4577
  35   2.0000      -0.374717       -10.1966
  36   2.0000      -0.354459        -9.6453
  37   2.0000      -0.353222        -9.6116
  38   2.0000      -0.332988        -9.0611
  39   2.0000      -0.320157        -8.7119
  40   2.0000      -0.304959        -8.2984
  41   2.0000      -0.297872        -8.1055
  42   2.0000      -0.287822        -7.8320
  43   2.0000      -0.270360        -7.3569
  44   2.0000      -0.265099        -7.2137
  45   2.0000      -0.243156        -6.6166
  46   2.0000      -0.237713        -6.4685
  47   2.0000      -0.232332        -6.3221
  48   0.0000       0.031294         0.8516
  49   0.0000       0.042216         1.1488
  50   0.0000       0.056256         1.5308
  51   0.0000       0.070525         1.9191
  52   0.0000       0.079483         2.1628

MULLIKEN ATOMIC CHARGES
-----------------------
   0 C :   -0.249872
   1 C :    0.039555
   2 H :    0.168102
   3 C :    0.017701
   4 H :    0.192004
   5 C :   -0.172402
   6 H :    0.179736
   7 C :    0.012501
   8 H :    0.165601
   9 C :   -0.036148
  10 H :    0.142553
  11 O :   -0.230638
  12 O :   -0.404644
  13 O :   -0.409696
  14 O :   -0.393526
  15 O :   -0.442088
  16 O :   -0.424069
  17 H :    0.161339
  18 H :    0.138572
  19 H :    0.310603
  20 H :    0.313211
  21 H :    0.300755
  22 H :    0.311791
  23 H :    0.309057
Sum of atomic charges:   -0.0000000

LOEWDIN ATOMIC CHARGES
----------------------
   0 C :    0.044281
   1 C :    0.115246
   2 H :    0.187970
   3 C :    0.102371
   4 H :    0.187231
   5 C :    0.102105
   6 H :    0.203890
   7 C :    0.114912
   8 H :    0.181658
   9 C :    0.299368
  10 H :    0.181233
  11 O :   -0.691114
  12 O :   -0.503555
  13 O :   -0.556102
  14 O :   -0.558344
  15 O :   -0.582012
  16 O :   -0.590881
  17 H :    0.197244
  18 H :    0.164367
  19 H :    0.285627
  20 H :    0.282570
  21 H :    0.273538
  22 H :    0.283949
  23 H :    0.274448

  Mayer bond orders larger than 0.100000
B(  0-C ,  1-C ) :   0.9367 B(  0-C , 16-O ) :   1.0306 B(  0-C , 17-H ) :   0.9614
B(  0-C , 18-H ) :   0.9821 B(  1-C ,  2-H ) :   0.9340 B(  1-C ,  3-C ) :   0.8345
B(  1-C , 11-O ) :   0.7705 B(  1-C , 16-O ) :  -0.1135 B(  3-C ,  4-H ) :   0.9857
B(  3-C ,  5-C ) :   0.8264 B(  3-C , 15-O ) :   0.8487 B(  5-C ,  6-H ) :   0.9813
B(  5-C ,  7-C ) :   0.9390 B(  5-C , 14-O ) :   1.0699 B(  7-C ,  8-H ) :   0.9716
B(  7-C ,  9-C ) :   0.7901 B(  7-C , 13-O ) :   0.9158 B(  9-C , 10-H ) :   1.0075
B(  9-C , 11-O ) :   0.9400 B(  9-C , 12-O ) :   1.0446 B( 12-O , 19-H ) :   0.8795
B( 13-O , 20-H ) :   0.8795 B( 14-O , 21-H ) :   0.8896 B( 15-O , 22-H ) :   0.8735
B( 16-O , 23-H ) :   0.8770

Dispersion correction           -0.008055917
FINAL SINGLE POINT ENERGY      -687.076878908756

DIPOLE MOMENT
-------------

Method             : SCF
Type of density    : Electron Density
Multiplicity       :   1
Irrep              :   0
Energy             :  -687.0882474211301769 Eh
Relativity type    :
Basis              : AO
                                X                 Y                 Z
Electronic contribution:      2.307733490      -0.029741086      -0.845871111
Nuclear contribution   :     -1.913294180      -0.838851133       0.825706905
                        -----------------------------------------
Total Dipole Moment    :      0.394439310      -0.868592218      -0.020164206
                        -----------------------------------------
Magnitude (a.u.)       :      0.954170533
Magnitude (Debye)      :      2.425308752

Rotational constants in cm-1:             0.038849             0.027278             0.017824
Rotational constants in MHz :          1164.660466           817.778350           534.353473

                             ****ORCA TERMINATED NORMALLY****
TOTAL RUN TIME: 0 days 0 hours 0 minutes 49 seconds 349 msec
