                         Program Version 6.0.0  -   RELEASE  -
|  1> ! wb97x-v def2-tzvp def2/J RIJCOSX DEFGRID2 scfconv7 GCP(DFT/TZ) printgap
|  2> %output
|  3>     printlevel normal
|  4> end
|  5> * xyz 0 1
|  6> C -2.904377284824008 1.4790529362985168 0.004597685978572716
|  7> C -1.8133951404912003 0.44932863639603576 -0.010317682549224574
|  8> C -2.106225094631917 -0.919090179167182 -0.003270298778794078
|  9> C -1.0952888115237525 -1.8783826703729691 0.006798394014951507
| 10> C 0.23776343068813488 -1.4954505138196894 0.009065755415726944
| 11> C 0.5181910454757498 -0.13196132165779545 0.0002272706458010941
| 12> C -0.47505033045865763 0.8409144030913187 -0.010843222621037568
| 13> N 1.9184450352667808 0.2975225556443719 -0.0007085065932480696
| 14> O 2.161988767119373 1.5038771682400287 -0.015368909545293862
| 15> O 2.795350609062469 -0.566477492615937 0.012880067949244836
| 16> H -3.8619199723911284 1.0411639215533022 -0.28573201117224006
| 17> H -3.017641023747422 1.9013507695693144 1.0096093378341597
| 18> H -2.6739154689116424 2.3067053680960594 -0.6719384320030648
| 19> H -3.1444228398974823 -1.2374053953471225 -0.007375010514792725
| 20> H -1.3494687045870604 -2.9327469461272098 0.01022019433631469
| 21> H 1.0352111304996279 -2.2268900904729443 0.014189907214916373
| 22> H -0.21008988896129854 1.891398251412958 -0.019931349515488583
| 23> *
| 24>
| 25>                          ****END OF INPUT****

CARTESIAN COORDINATES (ANGSTROEM)
---------------------------------
  C     -2.904377    1.479053    0.004598
  C     -1.813395    0.449329   -0.010318
  C     -2.106225   -0.919090   -0.003270
  C     -1.095289   -1.878383    0.006798
  C      0.237763   -1.495451    0.009066
  C      0.518191   -0.131961    0.000227
  C     -0.475050    0.840914   -0.010843
  N      1.918445    0.297523   -0.000709
  O      2.161989    1.503877   -0.015369
  O      2.795351   -0.566477    0.012880
  H     -3.861920    1.041164   -0.285732
  H     -3.017641    1.901351    1.009609
  H     -2.673915    2.306705   -0.671938
  H     -3.144423   -1.237405   -0.007375
  H     -1.349469   -2.932747    0.010220
  H      1.035211   -2.226890    0.014190
  H     -0.210090    1.891398   -0.019931

 Total Charge           Charge          ....    0
 Multiplicity           Mult            ....    1
 Number of Electrons    NEL             ....   72
 Basis Dimension        Dim             ....  352

ORBITAL ENERGIES
----------------

  NO   OCC          E(Eh)            E(eV)
   0   2.0000     -21.706689      -590.6690
   1   2.0000     -21.706560      -590.6655
   2   2.0000     -16.772659      -456.4072
   3   2.0000     -12.121071      -329.8311
   4   2.0000     -12.088362      -328.9411
   5   2.0000     -12.082177      -328.7727
   6   2.0000     -12.081187      -328.7458
   7   2.0000     -12.079616      -328.7031
   8   2.0000     -12.077499      -328.6455
   9   2.0000     -12.062532      -328.2382
  10   2.0000      -1.899437       -51.6863
  11   2.0000      -1.743987       -47.4563
  12   2.0000      -1.439303       -39.1654
  13   2.0000      -1.374871       -37.4121
  14   2.0000      -1.321220       -35.9522
  15   2.0000      -1.271856       -34.6090
  16   2.0000      -1.221157       -33.2294
  17   2.0000      -1.177648       -32.0454
  18   2.0000      -1.144008       -31.1301
  19   2.0000      -1.119578       -30.4653
  20   2.0000      -1.081824       -29.4379
  21   2.0000      -1.073517       -29.2119
  22   2.0000      -0.991337       -26.9757
  23   2.0000      -0.978034       -26.6137
  24   2.0000      -0.928849       -25.2753
  25   2.0000      -0.916743       -24.9458
  26   2.0000      -0.900609       -24.5068
  27   2.0000      -0.897752       -24.4291
  28   2.0000      -0.892413       -24.2838
  29   2.0000      -0.860671       -23.4200
  30   2.0000      -0.859515       -23.3886
  31   2.0000      -0.848109       -23.0782
  32   2.0000      -0.829738       -22.5783
  33   2.0000      -0.798622       -21.7316
  34   2.0000      -0.682182       -18.5631
  35   2.0000      -0.663780       -18.0624
  36   0.0000      -0.482068       -13.1177
  37   0.0000      -0.264781        -7.2051
  38   0.0000      -0.262325        -7.1382
  39   0.0000      -0.231243        -6.2924
  40   0.0000      -0.121163        -3.2970

MULLIKEN ATOMIC CHARGES
-----------------------
   0 C :   -0.362591
   1 C :    0.193838
   2 C :   -0.193472
   3 C :   -0.057387
   4 C :   -0.206683
   5 C :    0.075658
   6 C :   -0.256687
   7 N :    0.453216
   8 O :   -0.311642
   9 O :   -0.312904
  10 H :    0.122220
  11 H :    0.134405
  12 H :    0.131074
  13 H :    0.127216
  14 H :    0.131761
  15 H :    0.165579
  16 H :    0.166398
Sum of atomic charges:   -0.0000000

LOEWDIN ATOMIC CHARGES
----------------------
   0 C :   -0.244793
   1 C :   -0.159826
   2 C :   -0.092022
   3 C :   -0.124828
   4 C :   -0.093354
   5 C :   -0.158168
   6 C :   -0.062387
   7 N :   -0.001028
   8 O :   -0.033462
   9 O :   -0.032692
  10 H :    0.126894
  11 H :    0.132617
  12 H :    0.130290
  13 H :    0.147899
  14 H :    0.147587
  15 H :    0.157212
  16 H :    0.160062

  Mayer bond orders larger than 0.100000
B(  0-C ,  1-C ) :   0.9257 B(  0-C , 10-H ) :   0.9908 B(  0-C , 11-H ) :   0.9635
B(  0-C , 12-H ) :   0.9842 B(  1-C ,  2-C ) :   1.4009 B(  1-C ,  6-C ) :   1.3661
B(  2-C ,  3-C ) :   1.4228 B(  2-C , 13-H ) :   0.9654 B(  3-C ,  4-C ) :   1.4272
B(  3-C , 14-H ) :   0.9716 B(  4-C ,  5-C ) :   1.4153 B(  4-C , 15-H ) :   0.9336
B(  5-C ,  6-C ) :   1.4463 B(  5-C ,  7-N ) :   0.9941 B(  6-C , 16-H ) :   0.9287
B(  7-N ,  8-O ) :   1.6510 B(  7-N ,  9-O ) :   1.6465 B(  8-O ,  9-O ) :   0.2002

FINAL SINGLE POINT ENERGY      -476.098041322463

DIPOLE MOMENT
-------------

Method             : SCF
Type of density    : Electron Density
Multiplicity       :   1
Irrep              :   0
Energy             :  -476.1074857499632458 Eh
Relativity type    :
Basis              : AO
                                X                 Y                 Z
Electronic contribution:     10.435199037      -1.106095422      -0.034155126
Nuclear contribution   :    -12.374431902       0.711706001       0.048148645
                        -----------------------------------------
Total Dipole Moment    :     -1.939232865      -0.394389421       0.013993519
                        -----------------------------------------
Magnitude (a.u.)       :      1.978980278
Magnitude (Debye)      :      5.030168111

Rotational constants in cm-1:             0.088799             0.032900             0.024114
Rotational constants in MHz :          2662.125488           986.331958           722.922741

                             ****ORCA TERMINATED NORMALLY****
TOTAL RUN TIME: 0 days 0 hours 3 minutes 31 seconds 4 msec
