                         Program Version 6.0.0  -   RELEASE  -
|  1> ! wb97x-v def2-tzvp def2/J RIJCOSX DEFGRID2 scfconv7 GCP(DFT/TZ) printgap
|  2> %output
|  3>     printlevel normal
|  4> end
|  5> %cpcm
|  6>     smd true
|  7>     smdsolvent "water"
|  8> end
|  9> * xyz 0 1
| 10> C -2.904377284824008 1.4790529362985168 0.004597685978572716
| 11> C -1.8133951404912003 0.44932863639603576 -0.010317682549224574
| 12> C -2.106225094631917 -0.919090179167182 -0.003270298778794078
| 13> C -1.0952888115237525 -1.8783826703729691 0.006798394014951507
| 14> C 0.23776343068813488 -1.4954505138196894 0.009065755415726944
| 15> C 0.5181910454757498 -0.13196132165779545 0.0002272706458010941
| 16> C -0.47505033045865763 0.8409144030913187 -0.010843222621037568
| 17> N 1.9184450352667808 0.2975225556443719 -0.0007085065932480696
| 18> O 2.161988767119373 1.5038771682400287 -0.015368909545293862
| 19> O 2.795350609062469 -0.566477492615937 0.012880067949244836
| 20> H -3.8619199723911284 1.0411639215533022 -0.28573201117224006
| 21> H -3.017641023747422 1.9013507695693144 1.0096093378341597
| 22> H -2.6739154689116424 2.3067053680960594 -0.6719384320030648
| 23> H -3.1444228398974823 -1.2374053953471225 -0.007375010514792725
| 24> H -1.3494687045870604 -2.9327469461272098 0.01022019433631469
| 25> H 1.0352111304996279 -2.2268900904729443 0.014189907214916373
| 26> H -0.21008988896129854 1.891398251412958 -0.019931349515488583
| 27> *
| 28>
| 29>                          ****END OF INPUT****

CARTESIAN COORDINATES (ANGSTROEM)
---------------------------------
  C     -2.904377    1.479053    0.004598
  C     -1.813395    0.449329   -0.010318
  C     -2.106225   -0.919090   -0.003270
  C     -1.095289   -1.878383    0.006798
  C      0.237763   -1.495451    0.009066
  C      0.518191   -0.131961    0.000227
  C     -0.475050    0.840914   -0.010843
  N      1.918445    0.297523   -0.000709
  O      2.161989    1.503877   -0.015369
  O      2.795351   -0.566477    0.012880
  H     -3.861920    1.041164   -0.285732
  H     -3.017641    1.901351    1.009609
  H     -2.673915    2.306705   -0.671938
  H     -3.144423   -1.237405   -0.007375
  H     -1.349469   -2.932747    0.010220
  H      1.035211   -2.226890    0.014190
  H     -0.210090    1.891398   -0.019931

 Total Charge           Charge          ....    0
 Multiplicity           Mult            ....    1
 Number of Electrons    NEL             ....   72
 Basis Dimension        Dim             ....  352

ORBITAL ENERGIES
----------------

  NO   OCC          E(Eh)            E(eV)
   0   2.0000     -21.721617      -591.0753
   1   2.0000     -21.721445      -591.0706
   2   2.0000     -16.785654      -456.7609
   3   2.0000     -12.113940      -329.6371
   4   2.0000     -12.073946      -328.5488
   5   2.0000     -12.071146      -328.4726
   6   2.0000     -12.069929      -328.4395
   7   2.0000     -12.064186      -328.2832
   8   2.0000     -12.062036      -328.2247
   9   2.0000     -12.038179      -327.5755
  10   2.0000      -1.913944       -52.0811
  11   2.0000      -1.759263       -47.8720
  12   2.0000      -1.435107       -39.0512
  13   2.0000      -1.369814       -37.2745
  14   2.0000      -1.307671       -35.5835
  15   2.0000      -1.269457       -34.5437
  16   2.0000      -1.203351       -32.7448
  17   2.0000      -1.184523       -32.2325
  18   2.0000      -1.157544       -31.4984
  19   2.0000      -1.110209       -30.2103
  20   2.0000      -1.086960       -29.5777
  21   2.0000      -1.071523       -29.1576
  22   2.0000      -0.979289       -26.6478
  23   2.0000      -0.963661       -26.2226
  24   2.0000      -0.932740       -25.3811
  25   2.0000      -0.927994       -25.2520
  26   2.0000      -0.911356       -24.7993
  27   2.0000      -0.895468       -24.3669
  28   2.0000      -0.885615       -24.0988
  29   2.0000      -0.842772       -22.9330
  30   2.0000      -0.838433       -22.8149
  31   2.0000      -0.830755       -22.6060
  32   2.0000      -0.807917       -21.9845
  33   2.0000      -0.787118       -21.4186
  34   2.0000      -0.672356       -18.2957
  35   2.0000      -0.650706       -17.7066
  36   0.0000      -0.491926       -13.3860
  37   0.0000      -0.251910        -6.8548
  38   0.0000      -0.250914        -6.8277
  39   0.0000      -0.237944        -6.4748
  40   0.0000      -0.126917        -3.4536

MULLIKEN ATOMIC CHARGES
-----------------------
   0 C :   -0.395451
   1 C :    0.161557
   2 C :   -0.215609
   3 C :   -0.102654
   4 C :   -0.228105
   5 C :    0.132301
   6 C :   -0.266150
   7 N :    0.510723
   8 O :   -0.372581
   9 O :   -0.374428
  10 H :    0.146811
  11 H :    0.147936
  12 H :    0.147498
  13 H :    0.169663
  14 H :    0.172295
  15 H :    0.183564
  16 H :    0.182631
Sum of atomic charges:   -0.0000000

LOEWDIN ATOMIC CHARGES
----------------------
   0 C :   -0.244406
   1 C :   -0.158136
   2 C :   -0.082190
   3 C :   -0.123708
   4 C :   -0.094924
   5 C :   -0.164235
   6 C :   -0.059321
   7 N :    0.012626
   8 O :   -0.067745
   9 O :   -0.068007
  10 H :    0.132815
  11 H :    0.136798
  12 H :    0.134461
  13 H :    0.160180
  14 H :    0.158375
  15 H :    0.161913
  16 H :    0.165506

  Mayer bond orders larger than 0.100000
B(  0-C ,  1-C ) :   0.9358 B(  0-C , 10-H ) :   0.9856 B(  0-C , 11-H ) :   0.9584
B(  0-C , 12-H ) :   0.9780 B(  1-C ,  2-C ) :   1.3801 B(  1-C ,  6-C ) :   1.3882
B(  2-C ,  3-C ) :   1.4016 B(  2-C , 13-H ) :   0.9694 B(  3-C ,  4-C ) :   1.4355
B(  3-C , 14-H ) :   0.9715 B(  4-C ,  5-C ) :   1.3516 B(  4-C , 15-H ) :   0.9456
B(  5-C ,  6-C ) :   1.3865 B(  5-C ,  7-N ) :   1.0063 B(  6-C , 16-H ) :   0.9407
B(  7-N ,  8-O ) :   1.6144 B(  7-N ,  9-O ) :   1.6093 B(  8-O ,  9-O ) :   0.1871

FINAL SINGLE POINT ENERGY      -476.102144434645

DIPOLE MOMENT
-------------

Method             : SCF
Type of density    : Electron Density
Multiplicity       :   1
Irrep              :   0
Energy             :  -476.1115888621446288 Eh
Relativity type    :
Basis              : AO
                                X                 Y                 Z
Electronic contribution:      9.762379991      -1.260059271      -0.030166736
Nuclear contribution   :    -12.374431902       0.711706001       0.048148645
                        -----------------------------------------
Total Dipole Moment    :     -2.612051912      -0.548353270       0.017981909
                        -----------------------------------------
Magnitude (a.u.)       :      2.669050364
Magnitude (Debye)      :      6.784186878

Rotational constants in cm-1:             0.088799             0.032900             0.024114
Rotational constants in MHz :          2662.125488           986.331958           722.922741

                             ****ORCA TERMINATED NORMALLY****
TOTAL RUN TIME: 0 days 0 hours 3 minutes 21 seconds 864 msec
