                         Program Version 6.0.0  -   RELEASE  -
|  1> ! pbe def2-sv(p) def2/J RI DEFGRID1 loosescf d4 GCP(DFT/SV(P)) printgap
|  2> %output
|  3>     printlevel normal
|  4> end
|  5> * xyz 0 1
|  6> C -2.3623641566 -1.0092318422 0.3679407341
|  7> C -1.0894370993 -0.2520832462 0.795550719
|  8> H -1.3128691331 0.2255929358 1.7577553498
|  9> C -0.6753792194 0.850052018 -0.1854632047
| 10> H -0.6786710104 0.4701581321 -1.2190802208
| 11> C 0.7577997941 1.2913004874 0.1671439731
| 12> H 0.7807336133 1.5601753462 1.2306300003
| 13> C 1.7340403158 0.1296564522 -0.0854884037
| 14> H 2.0874158505 0.1612747874 -1.1220952489
| 15> C 0.9923998452 -1.2203782892 0.0852848204
| 16> H 1.6999923473 -1.9655751893 0.4855402352
| 17> O -0.016250018 -1.1605229127 1.0553970979
| 18> O 0.528187407 -1.6058575698 -1.1703432234
| 19> O 2.8901089618 0.2066125733 0.7020980027
| 20> O 1.0931582497 2.4744382753 -0.5124924956
| 21> O -1.5815224411 1.9178604204 -0.0679470603
| 22> O -2.2505041829 -1.6904505823 -0.8587504639
| 23> H -3.1876700147 -0.2918478681 0.3539378116
| 24> H -2.5602231542 -1.776725935 1.1196205519
| 25> H -0.2011312215 -2.2459748786 -1.0701992698
| 26> H 2.6570191168 0.169041121 1.6412062081
| 27> H 1.3224982416 2.2783745254 -1.4326576095
| 28> H -1.103756558 2.7388919413 -0.2749241997
| 29> H -2.3687921201 -1.0680693599 -1.5889113592
| 30> *
| 31>
| 32>                          ****END OF INPUT****

CARTESIAN COORDINATES (ANGSTROEM)
---------------------------------
  C     -2.362364   -1.009232    0.367941
  C     -1.089437   -0.252083    0.795551
  H     -1.312869    0.225593    1.757755
  C     -0.675379    0.850052   -0.185463
  H     -0.678671    0.470158   -1.219080
  C      0.757800    1.291300    0.167144
  H      0.780734    1.560175    1.230630
  C      1.734040    0.129656   -0.085488
  H      2.087416    0.161275   -1.122095
  C      0.992400   -1.220378    0.085285
  H      1.699992   -1.965575    0.485540
  O     -0.016250   -1.160523    1.055397
  O      0.528187   -1.605858   -1.170343
  O      2.890109    0.206613    0.702098
  O      1.093158    2.474438   -0.512492
  O     -1.581522    1.917860   -0.067947
  O     -2.250504   -1.690451   -0.858750
  H     -3.187670   -0.291848    0.353938
  H     -2.560223   -1.776726    1.119621
  H     -0.201131   -2.245975   -1.070199
  H      2.657019    0.169041    1.641206
  H      1.322498    2.278375   -1.432658
  H     -1.103757    2.738892   -0.274924
  H     -2.368792   -1.068069   -1.588911

 Total Charge           Charge          ....    0
 Multiplicity           Mult            ....    1
 Number of Electrons    NEL             ....   96
 Basis Dimension        Dim             ....  192

ORBITAL ENERGIES
----------------

  NO   OCC          E(Eh)            E(eV)
   0   2.0000     -18.772495      -510.8256
   1   2.0000     -18.770308      -510.7661
   2   2.0000     -18.769588      -510.7464
   3   2.0000     -18.753655      -510.3129
   4   2.0000     -18.753426      -510.3067
   5   2.0000     -18.751934      -510.2661
   6   2.0000      -9.983288      -271.6591
   7   2.0000      -9.951117      -270.7837
   8   2.0000      -9.947500      -270.6852
   9   2.0000      -9.945489      -270.6305
  10   2.0000      -9.944826      -270.6125
  11   2.0000      -9.938968      -270.4531
  12   2.0000      -0.983255       -26.7557
  13   2.0000      -0.954412       -25.9709
  14   2.0000      -0.941092       -25.6084
  15   2.0000      -0.931191       -25.3390
  16   2.0000      -0.921370       -25.0718
  17   2.0000      -0.906577       -24.6692
  18   2.0000      -0.708409       -19.2768
  19   2.0000      -0.693466       -18.8702
  20   2.0000      -0.628173       -17.0935
  21   2.0000      -0.589889       -16.0517
  22   2.0000      -0.577384       -15.7114
  23   2.0000      -0.527242       -14.3470
  24   2.0000      -0.510910       -13.9026
  25   2.0000      -0.488945       -13.3049
  26   2.0000      -0.472199       -12.8492
  27   2.0000      -0.455325       -12.3900
  28   2.0000      -0.450259       -12.2522
  29   2.0000      -0.433902       -11.8071
  30   2.0000      -0.422608       -11.4997
  31   2.0000      -0.408559       -11.1175
  32   2.0000      -0.396810       -10.7978
  33   2.0000      -0.377846       -10.2817
  34   2.0000      -0.361615        -9.8400
  35   2.0000      -0.358920        -9.7667
  36   2.0000      -0.331985        -9.0338
  37   2.0000      -0.316394        -8.6095
  38   2.0000      -0.306833        -8.3493
  39   2.0000      -0.300126        -8.1669
  40   2.0000      -0.292694        -7.9646
  41   2.0000      -0.273762        -7.4494
  42   2.0000      -0.261457        -7.1146
  43   2.0000      -0.250269        -6.8102
  44   2.0000      -0.242648        -6.6028
  45   2.0000      -0.224520        -6.1095
  46   2.0000      -0.212593        -5.7850
  47   2.0000      -0.207106        -5.6356
  48   0.0000       0.011042         0.3005
  49   0.0000       0.020754         0.5647
  50   0.0000       0.031408         0.8547
  51   0.0000       0.049717         1.3529
  52   0.0000       0.054026         1.4701

MULLIKEN ATOMIC CHARGES
-----------------------
   0 C :    0.062444
   1 C :    0.058534
   2 H :    0.069054
   3 C :    0.015454
   4 H :    0.037207
   5 C :    0.036444
   6 H :    0.052934
   7 C :    0.099381
   8 H :    0.066986
   9 C :    0.142252
  10 H :    0.064428
  11 O :   -0.316727
  12 O :   -0.417606
  13 O :   -0.412835
  14 O :   -0.415437
  15 O :   -0.419860
  16 O :   -0.437741
  17 H :    0.094852
  18 H :    0.094567
  19 H :    0.304001
  20 H :    0.300161
  21 H :    0.305035
  22 H :    0.302267
  23 H :    0.314204
Sum of atomic charges:    0.0000000

LOEWDIN ATOMIC CHARGES
----------------------
   0 C :   -0.130549
   1 C :   -0.068473
   2 H :    0.120345
   3 C :   -0.094200
   4 H :    0.091468
   5 C :   -0.076814
   6 H :    0.116234
   7 C :   -0.083500
   8 H :    0.120631
   9 C :   -0.009074
  10 H :    0.096775
  11 O :   -0.148197
  12 O :   -0.324259
  13 O :   -0.308162
  14 O :   -0.305888
  15 O :   -0.328212
  16 O :   -0.319483
  17 H :    0.114331
  18 H :    0.118820
  19 H :    0.273592
  20 H :    0.284931
  21 H :    0.288055
  22 H :    0.280480
  23 H :    0.291149

  Mayer bond orders larger than 0.100000
B(  0-C ,  1-C ) :   1.0372 B(  0-C , 16-O ) :   1.0665 B(  0-C , 17-H ) :   0.9170
B(  0-C , 18-H ) :   0.9186 B(  1-C ,  2-H ) :   0.8700 B(  1-C ,  3-C ) :   0.9723
B(  1-C , 11-O ) :   0.9676 B(  3-C ,  4-H ) :   0.8537 B(  3-C ,  5-C ) :   1.0335
B(  3-C , 15-O ) :   1.0838 B(  5-C ,  6-H ) :   0.8520 B(  5-C ,  7-C ) :   1.0000
B(  5-C , 14-O ) :   1.0350 B(  7-C ,  8-H ) :   0.8650 B(  7-C ,  9-C ) :   0.9775
B(  7-C , 13-O ) :   1.0548 B(  9-C , 10-H ) :   0.8976 B(  9-C , 11-O ) :   1.0759
B(  9-C , 12-O ) :   1.0837 B( 12-O , 19-H ) :   0.7940 B( 13-O , 20-H ) :   0.8481
B( 14-O , 21-H ) :   0.8451 B( 15-O , 22-H ) :   0.8201 B( 16-O , 23-H ) :   0.8392

Dispersion correction           -0.025085244
FINAL SINGLE POINT ENERGY      -685.695567538821

DIPOLE MOMENT
-------------

Method             : SCF
Type of density    : Electron Density
Multiplicity       :   1
Irrep              :   0
Energy             :  -685.8277421612286844 Eh
Relativity type    :
Basis              : AO
                                X                 Y                 Z
Electronic contribution:      2.261659793       0.010857958      -0.067349040
Nuclear contribution   :     -2.678458713       0.241634273      -0.124431516
                        -----------------------------------------
Total Dipole Moment    :     -0.416798920       0.252492232      -0.191780556
                        -----------------------------------------
Magnitude (a.u.)       :      0.523692131
Magnitude (Debye)      :      1.331119612

Rotational constants in cm-1:             0.042240             0.028138             0.020569
Rotational constants in MHz :          1266.331270           843.555764           616.648785

                             ****ORCA TERMINATED NORMALLY****
TOTAL RUN TIME: 0 days 0 hours 0 minutes 12 seconds 13 msec
