                         Program Version 6.0.0  -   RELEASE  -
|  1> ! r2scan-3c def2/J RI DEFGRID2 scfconv6 printgap
|  2> %output
|  3>     printlevel normal
|  4> end
|  5> * xyz 0 1
|  6> C 1.8139192086 0.0072985728 0.9992158548
|  7> C 0.9787897004 -0.3423278938 -0.2306011636
|  8> H 1.0552280124 -1.4120412233 -0.4532896931
|  9> C -0.506353948 -0.0904434756 0.0728467484
| 10> F -1.2926241956 -0.3478483165 -0.9899188938
| 11> F -0.9625845699 -0.8778312427 1.0667233046
| 12> F -0.7707004544 1.1702818109 0.4397485581
| 13> O 1.3296761177 0.4606852393 -1.3277300051
| 14> H 2.8564978411 -0.2099023669 0.7920893264
| 15> H 1.4833627623 -0.574072626 1.8544579971
| 16> H 1.7124677522 1.0673646625 1.2165343386
| 17> H 1.5760999433 -0.0698112876 -2.097574662
| 18> *
| 19>
| 20>                          ****END OF INPUT****

CARTESIAN COORDINATES (ANGSTROEM)
---------------------------------
  C      1.813919    0.007299    0.999216
  C      0.978790   -0.342328   -0.230601
  H      1.055228   -1.412041   -0.453290
  C     -0.506354   -0.090443    0.072847
  F     -1.292624   -0.347848   -0.989919
  F     -0.962585   -0.877831    1.066723
  F     -0.770700    1.170282    0.439749
  O      1.329676    0.460685   -1.327730
  H      2.856498   -0.209902    0.792089
  H      1.483363   -0.574073    1.854458
  H      1.712468    1.067365    1.216534
  H      1.576100   -0.069811   -2.097575

 Total Charge           Charge          ....    0
 Multiplicity           Mult            ....    1
 Number of Electrons    NEL             ....   58
 Basis Dimension        Dim             ....  178

ORBITAL ENERGIES
----------------

  NO   OCC          E(Eh)            E(eV)
   0   2.0000     -24.514999      -667.0870
   1   2.0000     -24.513544      -667.0475
   2   2.0000     -24.510367      -666.9610
   3   2.0000     -18.977070      -516.3923
   4   2.0000     -10.272611      -279.5320
   5   2.0000     -10.122647      -275.4512
   6   2.0000     -10.039205      -273.1806
   7   2.0000      -1.271083       -34.5879
   8   2.0000      -1.182199       -32.1693
   9   2.0000      -1.178957       -32.0811
  10   2.0000      -1.017925       -27.6992
  11   2.0000      -0.764510       -20.8034
  12   2.0000      -0.673042       -18.3144
  13   2.0000      -0.608177       -16.5493
  14   2.0000      -0.559345       -15.2205
  15   2.0000      -0.549357       -14.9488
  16   2.0000      -0.524607       -14.2753
  17   2.0000      -0.506217       -13.7749
  18   2.0000      -0.426571       -11.6076
  19   2.0000      -0.423886       -11.5345
  20   2.0000      -0.409611       -11.1461
  21   2.0000      -0.394480       -10.7344
  22   2.0000      -0.386081       -10.5058
  23   2.0000      -0.376698       -10.2505
  24   2.0000      -0.375776       -10.2254
  25   2.0000      -0.361343        -9.8326
  26   2.0000      -0.350107        -9.5269
  27   2.0000      -0.321637        -8.7522
  28   2.0000      -0.267875        -7.2892
  29   0.0000       0.031669         0.8618
  30   0.0000       0.081346         2.2135
  31   0.0000       0.102854         2.7988
  32   0.0000       0.122313         3.3283
  33   0.0000       0.134763         3.6671

MULLIKEN ATOMIC CHARGES
-----------------------
   0 C :   -0.479921
   1 C :   -0.021800
   2 H :    0.150774
   3 C :    0.561520
   4 F :   -0.209038
   5 F :   -0.217566
   6 F :   -0.209238
   7 O :   -0.389699
   8 H :    0.156857
   9 H :    0.163604
  10 H :    0.173748
  11 H :    0.320760
Sum of atomic charges:   -0.0000000

LOEWDIN ATOMIC CHARGES
----------------------
   0 C :   -0.374633
   1 C :    0.076723
   2 H :    0.184401
   3 C :    0.516064
   4 F :   -0.207987
   5 F :   -0.219413
   6 F :   -0.198554
   7 O :   -0.559054
   8 H :    0.162911
   9 H :    0.168801
  10 H :    0.173348
  11 H :    0.277391

  Mayer bond orders larger than 0.100000
B(  0-C ,  1-C ) :   0.9461 B(  0-C ,  8-H ) :   0.9630 B(  0-C ,  9-H ) :   0.9619
B(  0-C , 10-H ) :   0.9715 B(  1-C ,  2-H ) :   0.9421 B(  1-C ,  3-C ) :   0.9755
B(  1-C ,  7-O ) :   0.9462 B(  3-C ,  4-F ) :   1.0211 B(  3-C ,  5-F ) :   1.0011
B(  3-C ,  6-F ) :   1.0351 B(  7-O , 11-H ) :   0.8874

Dispersion correction           -0.002541890
FINAL SINGLE POINT ENERGY      -492.054522933062

DIPOLE MOMENT
-------------

Method             : SCF
Type of density    : Electron Density
Multiplicity       :   1
Irrep              :   0
Energy             :  -492.0637851002392154 Eh
Relativity type    :
Basis              : AO
                                X                 Y                 Z
Electronic contribution:    -10.009127154       0.399583893      -0.937676356
Nuclear contribution   :     10.970043244      -1.066222608       0.732840736
                        -----------------------------------------
Total Dipole Moment    :      0.960916090      -0.666638716      -0.204835621
                        -----------------------------------------
Magnitude (a.u.)       :      1.187318213
Magnitude (Debye)      :      3.017923060

Rotational constants in cm-1:             0.117250             0.079862             0.065310
Rotational constants in MHz :          3515.080420          2394.204881          1957.948090

                             ****ORCA TERMINATED NORMALLY****
TOTAL RUN TIME: 0 days 0 hours 0 minutes 18 seconds 485 msec
