                         Program Version 6.0.0  -   RELEASE  -
|  1> ! r2scan-3c def2/J RI DEFGRID2 scfconv6 printgap
|  2> %output
|  3>     printlevel normal
|  4> end
|  5> %cpcm
|  6>     smd true
|  7>     smdsolvent "water"
|  8> end
|  9> * xyz 0 1
| 10> C 1.8139192086 0.0072985728 0.9992158548
| 11> C 0.9787897004 -0.3423278938 -0.2306011636
| 12> H 1.0552280124 -1.4120412233 -0.4532896931
| 13> C -0.506353948 -0.0904434756 0.0728467484
| 14> F -1.2926241956 -0.3478483165 -0.9899188938
| 15> F -0.9625845699 -0.8778312427 1.0667233046
| 16> F -0.7707004544 1.1702818109 0.4397485581
| 17> O 1.3296761177 0.4606852393 -1.3277300051
| 18> H 2.8564978411 -0.2099023669 0.7920893264
| 19> H 1.4833627623 -0.574072626 1.8544579971
| 20> H 1.7124677522 1.0673646625 1.2165343386
| 21> H 1.5760999433 -0.0698112876 -2.097574662
| 22> *
| 23>
| 24>                          ****END OF INPUT****

CARTESIAN COORDINATES (ANGSTROEM)
---------------------------------
  C      1.813919    0.007299    0.999216
  C      0.978790   -0.342328   -0.230601
  H      1.055228   -1.412041   -0.453290
  C     -0.506354   -0.090443    0.072847
  F     -1.292624   -0.347848   -0.989919
  F     -0.962585   -0.877831    1.066723
  F     -0.770700    1.170282    0.439749
  O      1.329676    0.460685   -1.327730
  H      2.856498   -0.209902    0.792089
  H      1.483363   -0.574073    1.854458
  H      1.712468    1.067365    1.216534
  H      1.576100   -0.069811   -2.097575

 Total Charge           Charge          ....    0
 Multiplicity           Mult            ....    1
 Number of Electrons    NEL             ....   58
 Basis Dimension        Dim             ....  178

ORBITAL ENERGIES
----------------

  NO   OCC          E(Eh)            E(eV)
   0   2.0000     -24.520114      -667.2262
   1   2.0000     -24.518213      -667.1745
   2   2.0000     -24.516160      -667.1186
   3   2.0000     -18.966475      -516.1040
   4   2.0000     -10.274642      -279.5872
   5   2.0000     -10.109056      -275.0814
   6   2.0000     -10.023289      -272.7476
   7   2.0000      -1.276863       -34.7452
   8   2.0000      -1.188369       -32.3372
   9   2.0000      -1.184874       -32.2420
  10   2.0000      -1.006864       -27.3982
  11   2.0000      -0.753914       -20.5151
  12   2.0000      -0.669600       -18.2208
  13   2.0000      -0.603421       -16.4199
  14   2.0000      -0.561551       -15.2806
  15   2.0000      -0.554678       -15.0936
  16   2.0000      -0.518197       -14.1009
  17   2.0000      -0.494983       -13.4692
  18   2.0000      -0.431786       -11.7495
  19   2.0000      -0.430152       -11.7050
  20   2.0000      -0.404461       -11.0059
  21   2.0000      -0.389482       -10.5984
  22   2.0000      -0.387779       -10.5520
  23   2.0000      -0.377112       -10.2617
  24   2.0000      -0.370764       -10.0890
  25   2.0000      -0.362457        -9.8630
  26   2.0000      -0.342433        -9.3181
  27   2.0000      -0.310269        -8.4428
  28   2.0000      -0.261801        -7.1240
  29   0.0000       0.056142         1.5277
  30   0.0000       0.091526         2.4906
  31   0.0000       0.111720         3.0400
  32   0.0000       0.131533         3.5792
  33   0.0000       0.151058         4.1105

MULLIKEN ATOMIC CHARGES
-----------------------
   0 C :   -0.526742
   1 C :   -0.001066
   2 H :    0.196196
   3 C :    0.537502
   4 F :   -0.217322
   5 F :   -0.222364
   6 F :   -0.218728
   7 O :   -0.456570
   8 H :    0.179801
   9 H :    0.178467
  10 H :    0.177751
  11 H :    0.373074
Sum of atomic charges:   -0.0000000

LOEWDIN ATOMIC CHARGES
----------------------
   0 C :   -0.379899
   1 C :    0.083136
   2 H :    0.203157
   3 C :    0.511905
   4 F :   -0.216220
   5 F :   -0.222468
   6 F :   -0.209295
   7 O :   -0.583863
   8 H :    0.170604
   9 H :    0.174286
  10 H :    0.171446
  11 H :    0.297212

  Mayer bond orders larger than 0.100000
B(  0-C ,  1-C ) :   0.9311 B(  0-C ,  8-H ) :   0.9591 B(  0-C ,  9-H ) :   0.9579
B(  0-C , 10-H ) :   0.9677 B(  1-C ,  2-H ) :   0.9270 B(  1-C ,  3-C ) :   0.9828
B(  1-C ,  7-O ) :   0.9368 B(  3-C ,  4-F ) :   1.0174 B(  3-C ,  5-F ) :   1.0059
B(  3-C ,  6-F ) :   1.0270 B(  7-O , 11-H ) :   0.8567

Dispersion correction           -0.002541890
FINAL SINGLE POINT ENERGY      -492.062111532587

DIPOLE MOMENT
-------------

Method             : SCF
Type of density    : Electron Density
Multiplicity       :   1
Irrep              :   0
Energy             :  -492.0713736997640808 Eh
Relativity type    :
Basis              : AO
                                X                 Y                 Z
Electronic contribution:     -9.794465275       0.082025033      -0.987026737
Nuclear contribution   :     10.970043244      -1.066222608       0.732840736
                        -----------------------------------------
Total Dipole Moment    :      1.175577968      -0.984197576      -0.254186001
                        -----------------------------------------
Magnitude (a.u.)       :      1.554103906
Magnitude (Debye)      :      3.950218200

Rotational constants in cm-1:             0.117250             0.079862             0.065310
Rotational constants in MHz :          3515.080420          2394.204881          1957.948090

                             ****ORCA TERMINATED NORMALLY****
TOTAL RUN TIME: 0 days 0 hours 0 minutes 23 seconds 46 msec
