                         Program Version 6.0.0  -   RELEASE  -
|  1> ! wb97x-v def2-tzvp def2/J RIJCOSX DEFGRID2 scfconv7 GCP(DFT/TZ) printgap
|  2> %output
|  3>     printlevel normal
|  4> end
|  5> * xyz 0 1
|  6> C -2.6669064295185447 0.5887433453134945 0.7566356197871218
|  7> C -1.8512498851857941 0.5946258050576211 -0.5427272181179927
|  8> C -0.3811161198976356 0.3884930752588484 -0.29456779166366165
|  9> C 0.5020878780561973 1.4675148270262763 -0.22741535193589643
| 10> C 1.8589832338222108 1.293414558093088 0.03881541644135296
| 11> C 2.356639316869922 0.008601629738813042 0.2399337797193345
| 12> C 1.50062310482349 -1.0872038488167313 0.17996563322442646
| 13> C 0.14418644059793978 -0.89469141968272 -0.08023255193024188
| 14> O -0.732476427333131 -1.95587886056563 -0.14170577288216996
| 15> H -3.7318927184316006 0.7297286199005635 0.5461662398927303
| 16> H -2.3402448197299597 1.3966940681950164 1.419467450840268
| 17> H -2.549106254936999 -0.35774138243498954 1.2933941820400763
| 18> H -1.9892400131431425 1.5536775710429693 -1.0524240987565012
| 19> H -2.2297670755691383 -0.18505731841068004 -1.2123859010505904
| 20> H 0.10744230350169387 2.467395462616397 -0.3902098889972275
| 21> H 2.5206942525678557 2.1523175806626997 0.0827736587611466
| 22> H 3.411487312806296 -0.14758336706889322 0.4430821483882668
| 23> H 1.8773079817088973 -2.095488316593769 0.3330913032101048
| 24> H -0.24520402969169866 -2.7749687377350734 0.024009007911994656
| 25> *
| 26>
| 27>                          ****END OF INPUT****

CARTESIAN COORDINATES (ANGSTROEM)
---------------------------------
  C     -2.666906    0.588743    0.756636
  C     -1.851250    0.594626   -0.542727
  C     -0.381116    0.388493   -0.294568
  C      0.502088    1.467515   -0.227415
  C      1.858983    1.293415    0.038815
  C      2.356639    0.008602    0.239934
  C      1.500623   -1.087204    0.179966
  C      0.144186   -0.894691   -0.080233
  O     -0.732476   -1.955879   -0.141706
  H     -3.731893    0.729729    0.546166
  H     -2.340245    1.396694    1.419467
  H     -2.549106   -0.357741    1.293394
  H     -1.989240    1.553678   -1.052424
  H     -2.229767   -0.185057   -1.212386
  H      0.107442    2.467395   -0.390210
  H      2.520694    2.152318    0.082774
  H      3.411487   -0.147583    0.443082
  H      1.877308   -2.095488    0.333091
  H     -0.245204   -2.774969    0.024009

 Total Charge           Charge          ....    0
 Multiplicity           Mult            ....    1
 Number of Electrons    NEL             ....   66
 Basis Dimension        Dim             ....  339

ORBITAL ENERGIES
----------------

  NO   OCC          E(Eh)            E(eV)
   0   2.0000     -21.703727      -590.5884
   1   2.0000     -12.110693      -329.5487
   2   2.0000     -12.053132      -327.9824
   3   2.0000     -12.052502      -327.9653
   4   2.0000     -12.050438      -327.9091
   5   2.0000     -12.049218      -327.8759
   6   2.0000     -12.043363      -327.7166
   7   2.0000     -12.042983      -327.7062
   8   2.0000     -12.030555      -327.3680
   9   2.0000      -1.716996       -46.7218
  10   2.0000      -1.385290       -37.6956
  11   2.0000      -1.304287       -35.4915
  12   2.0000      -1.275394       -34.7052
  13   2.0000      -1.237627       -33.6776
  14   2.0000      -1.156022       -31.4570
  15   2.0000      -1.131204       -30.7816
  16   2.0000      -1.076471       -29.2923
  17   2.0000      -1.057778       -28.7836
  18   2.0000      -1.003226       -27.2992
  19   2.0000      -0.948584       -25.8123
  20   2.0000      -0.943319       -25.6690
  21   2.0000      -0.937880       -25.5210
  22   2.0000      -0.896835       -24.4041
  23   2.0000      -0.878166       -23.8961
  24   2.0000      -0.857668       -23.3383
  25   2.0000      -0.839875       -22.8542
  26   2.0000      -0.824524       -22.4364
  27   2.0000      -0.814609       -22.1666
  28   2.0000      -0.781357       -21.2618
  29   2.0000      -0.764686       -20.8082
  30   2.0000      -0.759770       -20.6744
  31   2.0000      -0.638903       -17.3854
  32   2.0000      -0.632305       -17.2059
  33   0.0000      -0.244432        -6.6513
  34   0.0000      -0.240299        -6.5389
  35   0.0000      -0.146369        -3.9829
  36   0.0000      -0.075180        -2.0458
  37   0.0000      -0.069175        -1.8824

MULLIKEN ATOMIC CHARGES
-----------------------
   0 C :   -0.354780
   1 C :   -0.161232
   2 C :    0.064427
   3 C :   -0.178295
   4 C :   -0.139724
   5 C :   -0.128157
   6 C :   -0.210209
   7 C :    0.204596
   8 O :   -0.398418
   9 H :    0.108336
  10 H :    0.107550
  11 H :    0.124313
  12 H :    0.098965
  13 H :    0.107792
  14 H :    0.112639
  15 H :    0.113630
  16 H :    0.116758
  17 H :    0.100797
  18 H :    0.311011
Sum of atomic charges:   -0.0000000

LOEWDIN ATOMIC CHARGES
----------------------
   0 C :   -0.294813
   1 C :   -0.237906
   2 C :   -0.129108
   3 C :   -0.108020
   4 C :   -0.158243
   5 C :   -0.143311
   6 C :   -0.147708
   7 C :   -0.229838
   8 O :    0.067956
   9 H :    0.114584
  10 H :    0.116416
  11 H :    0.120040
  12 H :    0.137163
  13 H :    0.141932
  14 H :    0.145403
  15 H :    0.140003
  16 H :    0.141641
  17 H :    0.138778
  18 H :    0.185032

  Mayer bond orders larger than 0.100000
B(  0-C ,  1-C ) :   0.9658 B(  0-C ,  9-H ) :   0.9797 B(  0-C , 10-H ) :   0.9797
B(  0-C , 11-H ) :   0.9819 B(  1-C ,  2-C ) :   0.9268 B(  1-C , 12-H ) :   0.9902
B(  1-C , 13-H ) :   0.9674 B(  2-C ,  3-C ) :   1.4233 B(  2-C ,  7-C ) :   1.3622
B(  3-C ,  4-C ) :   1.4380 B(  3-C , 14-H ) :   0.9730 B(  4-C ,  5-C ) :   1.4371
B(  4-C , 15-H ) :   0.9768 B(  5-C ,  6-C ) :   1.4263 B(  5-C , 16-H ) :   0.9660
B(  6-C ,  7-C ) :   1.4041 B(  6-C , 17-H ) :   0.9644 B(  7-C ,  8-O ) :   1.1560
B(  8-O , 18-H ) :   0.8884

FINAL SINGLE POINT ENERGY      -386.119593031339

DIPOLE MOMENT
-------------

Method             : SCF
Type of density    : Electron Density
Multiplicity       :   1
Irrep              :   0
Energy             :  -386.1306601579393032 Eh
Relativity type    :
Basis              : AO
                                X                 Y                 Z
Electronic contribution:      5.181084216      -2.876320088      -1.300841989
Nuclear contribution   :     -4.909530189       2.555428082       1.386987648
                        -----------------------------------------
Total Dipole Moment    :      0.271554027      -0.320892006       0.086145659
                        -----------------------------------------
Magnitude (a.u.)       :      0.429108778
Magnitude (Debye)      :      1.090707834

Rotational constants in cm-1:             0.088738             0.047759             0.033604
Rotational constants in MHz :          2660.299388          1431.787029          1007.415929

                             ****ORCA TERMINATED NORMALLY****
TOTAL RUN TIME: 0 days 0 hours 3 minutes 10 seconds 490 msec
