                         Program Version 6.0.0  -   RELEASE  -
|  1> ! wb97x-v def2-tzvp def2/J RIJCOSX DEFGRID2 scfconv7 GCP(DFT/TZ) printgap
|  2> %output
|  3>     printlevel normal
|  4> end
|  5> %cpcm
|  6>     smd true
|  7>     smdsolvent "water"
|  8> end
|  9> * xyz 0 1
| 10> C -2.6669064295185447 0.5887433453134945 0.7566356197871218
| 11> C -1.8512498851857941 0.5946258050576211 -0.5427272181179927
| 12> C -0.3811161198976356 0.3884930752588484 -0.29456779166366165
| 13> C 0.5020878780561973 1.4675148270262763 -0.22741535193589643
| 14> C 1.8589832338222108 1.293414558093088 0.03881541644135296
| 15> C 2.356639316869922 0.008601629738813042 0.2399337797193345
| 16> C 1.50062310482349 -1.0872038488167313 0.17996563322442646
| 17> C 0.14418644059793978 -0.89469141968272 -0.08023255193024188
| 18> O -0.732476427333131 -1.95587886056563 -0.14170577288216996
| 19> H -3.7318927184316006 0.7297286199005635 0.5461662398927303
| 20> H -2.3402448197299597 1.3966940681950164 1.419467450840268
| 21> H -2.549106254936999 -0.35774138243498954 1.2933941820400763
| 22> H -1.9892400131431425 1.5536775710429693 -1.0524240987565012
| 23> H -2.2297670755691383 -0.18505731841068004 -1.2123859010505904
| 24> H 0.10744230350169387 2.467395462616397 -0.3902098889972275
| 25> H 2.5206942525678557 2.1523175806626997 0.0827736587611466
| 26> H 3.411487312806296 -0.14758336706889322 0.4430821483882668
| 27> H 1.8773079817088973 -2.095488316593769 0.3330913032101048
| 28> H -0.24520402969169866 -2.7749687377350734 0.024009007911994656
| 29> *
| 30>
| 31>                          ****END OF INPUT****

CARTESIAN COORDINATES (ANGSTROEM)
---------------------------------
  C     -2.666906    0.588743    0.756636
  C     -1.851250    0.594626   -0.542727
  C     -0.381116    0.388493   -0.294568
  C      0.502088    1.467515   -0.227415
  C      1.858983    1.293415    0.038815
  C      2.356639    0.008602    0.239934
  C      1.500623   -1.087204    0.179966
  C      0.144186   -0.894691   -0.080233
  O     -0.732476   -1.955879   -0.141706
  H     -3.731893    0.729729    0.546166
  H     -2.340245    1.396694    1.419467
  H     -2.549106   -0.357741    1.293394
  H     -1.989240    1.553678   -1.052424
  H     -2.229767   -0.185057   -1.212386
  H      0.107442    2.467395   -0.390210
  H      2.520694    2.152318    0.082774
  H      3.411487   -0.147583    0.443082
  H      1.877308   -2.095488    0.333091
  H     -0.245204   -2.774969    0.024009

 Total Charge           Charge          ....    0
 Multiplicity           Mult            ....    1
 Number of Electrons    NEL             ....   66
 Basis Dimension        Dim             ....  339

ORBITAL ENERGIES
----------------

  NO   OCC          E(Eh)            E(eV)
   0   2.0000     -21.699700      -590.4788
   1   2.0000     -12.109713      -329.5220
   2   2.0000     -12.052489      -327.9649
   3   2.0000     -12.049789      -327.8914
   4   2.0000     -12.047529      -327.8299
   5   2.0000     -12.046110      -327.7913
   6   2.0000     -12.041338      -327.6615
   7   2.0000     -12.040629      -327.6422
   8   2.0000     -12.028629      -327.3156
   9   2.0000      -1.713377       -46.6234
  10   2.0000      -1.385088       -37.6902
  11   2.0000      -1.303175       -35.4612
  12   2.0000      -1.273969       -34.6665
  13   2.0000      -1.236161       -33.6376
  14   2.0000      -1.153112       -31.3778
  15   2.0000      -1.129595       -30.7378
  16   2.0000      -1.074543       -29.2398
  17   2.0000      -1.055416       -28.7193
  18   2.0000      -1.002680       -27.2843
  19   2.0000      -0.947187       -25.7743
  20   2.0000      -0.941432       -25.6177
  21   2.0000      -0.934862       -25.4389
  22   2.0000      -0.892961       -24.2987
  23   2.0000      -0.874284       -23.7905
  24   2.0000      -0.855613       -23.2824
  25   2.0000      -0.837501       -22.7896
  26   2.0000      -0.822477       -22.3807
  27   2.0000      -0.811050       -22.0698
  28   2.0000      -0.779460       -21.2102
  29   2.0000      -0.763298       -20.7704
  30   2.0000      -0.759774       -20.6745
  31   2.0000      -0.638778       -17.3820
  32   2.0000      -0.633534       -17.2393
  33   0.0000      -0.245395        -6.6775
  34   0.0000      -0.239858        -6.5269
  35   0.0000      -0.143048        -3.8925
  36   0.0000      -0.074352        -2.0232
  37   0.0000      -0.037418        -1.0182

MULLIKEN ATOMIC CHARGES
-----------------------
   0 C :   -0.402112
   1 C :   -0.173937
   2 C :    0.032344
   3 C :   -0.220262
   4 C :   -0.193259
   5 C :   -0.159409
   6 C :   -0.268476
   7 C :    0.221870
   8 O :   -0.471658
   9 H :    0.129677
  10 H :    0.125470
  11 H :    0.126861
  12 H :    0.123915
  13 H :    0.113623
  14 H :    0.156506
  15 H :    0.157710
  16 H :    0.162229
  17 H :    0.164024
  18 H :    0.374885
Sum of atomic charges:   -0.0000000

LOEWDIN ATOMIC CHARGES
----------------------
   0 C :   -0.301332
   1 C :   -0.239972
   2 C :   -0.140404
   3 C :   -0.118755
   4 C :   -0.172691
   5 C :   -0.154375
   6 C :   -0.144183
   7 C :   -0.237915
   8 O :    0.047342
   9 H :    0.119146
  10 H :    0.119571
  11 H :    0.118243
  12 H :    0.143973
  13 H :    0.141166
  14 H :    0.155094
  15 H :    0.148451
  16 H :    0.151159
  17 H :    0.155665
  18 H :    0.209816

  Mayer bond orders larger than 0.100000
B(  0-C ,  1-C ) :   0.9606 B(  0-C ,  9-H ) :   0.9770 B(  0-C , 10-H ) :   0.9782
B(  0-C , 11-H ) :   0.9800 B(  1-C ,  2-C ) :   0.9284 B(  1-C , 12-H ) :   0.9844
B(  1-C , 13-H ) :   0.9699 B(  2-C ,  3-C ) :   1.4045 B(  2-C ,  7-C ) :   1.3462
B(  3-C ,  4-C ) :   1.4187 B(  3-C , 14-H ) :   0.9771 B(  4-C ,  5-C ) :   1.4038
B(  4-C , 15-H ) :   0.9816 B(  5-C ,  6-C ) :   1.3853 B(  5-C , 16-H ) :   0.9690
B(  6-C ,  7-C ) :   1.4064 B(  6-C , 17-H ) :   0.9722 B(  7-C ,  8-O ) :   1.1184
B(  8-O , 18-H ) :   0.8486

FINAL SINGLE POINT ENERGY      -386.127620440088

DIPOLE MOMENT
-------------

Method             : SCF
Type of density    : Electron Density
Multiplicity       :   1
Irrep              :   0
Energy             :  -386.1386875666883611 Eh
Relativity type    :
Basis              : AO
                                X                 Y                 Z
Electronic contribution:      5.304286829      -2.982680124      -1.265409196
Nuclear contribution   :     -4.909530189       2.555428082       1.386987648
                        -----------------------------------------
Total Dipole Moment    :      0.394756640      -0.427252042       0.121578452
                        -----------------------------------------
Magnitude (a.u.)       :      0.594271346
Magnitude (Debye)      :      1.510517718

Rotational constants in cm-1:             0.088738             0.047759             0.033604
Rotational constants in MHz :          2660.299388          1431.787029          1007.415929

                             ****ORCA TERMINATED NORMALLY****
TOTAL RUN TIME: 0 days 0 hours 3 minutes 16 seconds 593 msec
