                         Program Version 6.0.0  -   RELEASE  -
|  1> ! pbe def2-sv(p) def2/J RI DEFGRID1 loosescf d4 GCP(DFT/SV(P)) printgap
|  2> %output
|  3>     printlevel normal
|  4> end
|  5> * xyz 0 1
|  6> C -1.9984551351 -0.2070415626 -0.9777600559
|  7> C -1.3735851518 -0.1807614739 0.4353586811
|  8> H -2.1665070001 -0.3730476746 1.171185365
|  9> C -0.7354286887 1.1841470253 0.7264114318
| 10> H -1.4518237112 1.9681030841 0.4446867683
| 11> C 0.5277566204 1.4170925162 -0.1228133222
| 12> H 1.2171603234 2.0138089895 0.4916935179
| 13> C 1.2427273283 0.096947241 -0.4531555987
| 14> H 0.8863661256 -0.2786438484 -1.4262369649
| 15> C 0.9070291854 -0.9541811767 0.6178269102
| 16> H 1.2279968744 -0.5738217823 1.6017274712
| 17> O -0.4617700359 -1.2618393096 0.6189309524
| 18> O 1.6116041924 -2.1296356673 0.4008140131
| 19> O 2.627853911 0.3308855808 -0.50591191
| 20> O 0.1514893248 2.1186361475 -1.2811349718
| 21> O -0.3615431327 1.3073423505 2.0778740788
| 22> O -2.2827491292 -1.5066503568 -1.4222199143
| 23> H -1.3116832562 0.2186820426 -1.7099952782
| 24> H -2.9054230595 0.4113788118 -0.9609689734
| 25> H 1.116049808 -2.681908865 -0.2252349202
| 26> H 3.0890159911 -0.5176903006 -0.4096809542
| 27> H 0.9484328756 2.3959367419 -1.7562268174
| 28> H -1.1500858428 1.3230741854 2.6403594793
| 29> H -2.8551807861 -1.9511672888 -0.780649963
| 30> *
| 31>
| 32>                          ****END OF INPUT****

CARTESIAN COORDINATES (ANGSTROEM)
---------------------------------
  C     -1.998455   -0.207042   -0.977760
  C     -1.373585   -0.180761    0.435359
  H     -2.166507   -0.373048    1.171185
  C     -0.735429    1.184147    0.726411
  H     -1.451824    1.968103    0.444687
  C      0.527757    1.417093   -0.122813
  H      1.217160    2.013809    0.491694
  C      1.242727    0.096947   -0.453156
  H      0.886366   -0.278644   -1.426237
  C      0.907029   -0.954181    0.617827
  H      1.227997   -0.573822    1.601727
  O     -0.461770   -1.261839    0.618931
  O      1.611604   -2.129636    0.400814
  O      2.627854    0.330886   -0.505912
  O      0.151489    2.118636   -1.281135
  O     -0.361543    1.307342    2.077874
  O     -2.282749   -1.506650   -1.422220
  H     -1.311683    0.218682   -1.709995
  H     -2.905423    0.411379   -0.960969
  H      1.116050   -2.681909   -0.225235
  H      3.089016   -0.517690   -0.409681
  H      0.948433    2.395937   -1.756227
  H     -1.150086    1.323074    2.640359
  H     -2.855181   -1.951167   -0.780650

 Total Charge           Charge          ....    0
 Multiplicity           Mult            ....    1
 Number of Electrons    NEL             ....   96
 Basis Dimension        Dim             ....  192

ORBITAL ENERGIES
----------------

  NO   OCC          E(Eh)            E(eV)
   0   2.0000     -18.765688      -510.6403
   1   2.0000     -18.762943      -510.5656
   2   2.0000     -18.761123      -510.5161
   3   2.0000     -18.757956      -510.4299
   4   2.0000     -18.746844      -510.1276
   5   2.0000     -18.746471      -510.1174
   6   2.0000      -9.979460      -271.5549
   7   2.0000      -9.952825      -270.8301
   8   2.0000      -9.949369      -270.7361
   9   2.0000      -9.944163      -270.5944
  10   2.0000      -9.932585      -270.2794
  11   2.0000      -9.929968      -270.2082
  12   2.0000      -0.982020       -26.7221
  13   2.0000      -0.945044       -25.7160
  14   2.0000      -0.935968       -25.4690
  15   2.0000      -0.926494       -25.2112
  16   2.0000      -0.918156       -24.9843
  17   2.0000      -0.905263       -24.6335
  18   2.0000      -0.710277       -19.3276
  19   2.0000      -0.685309       -18.6482
  20   2.0000      -0.616296       -16.7703
  21   2.0000      -0.587186       -15.9781
  22   2.0000      -0.569121       -15.4866
  23   2.0000      -0.522298       -14.2125
  24   2.0000      -0.512393       -13.9429
  25   2.0000      -0.488984       -13.3059
  26   2.0000      -0.473339       -12.8802
  27   2.0000      -0.455298       -12.3893
  28   2.0000      -0.436020       -11.8647
  29   2.0000      -0.429255       -11.6806
  30   2.0000      -0.425034       -11.5658
  31   2.0000      -0.401771       -10.9327
  32   2.0000      -0.385383       -10.4868
  33   2.0000      -0.372546       -10.1375
  34   2.0000      -0.363124        -9.8811
  35   2.0000      -0.356904        -9.7119
  36   2.0000      -0.323342        -8.7986
  37   2.0000      -0.313542        -8.5319
  38   2.0000      -0.311988        -8.4896
  39   2.0000      -0.284898        -7.7525
  40   2.0000      -0.280572        -7.6348
  41   2.0000      -0.277224        -7.5436
  42   2.0000      -0.255629        -6.9560
  43   2.0000      -0.235330        -6.4036
  44   2.0000      -0.232521        -6.3272
  45   2.0000      -0.221571        -6.0293
  46   2.0000      -0.213339        -5.8053
  47   2.0000      -0.196679        -5.3519
  48   0.0000       0.009574         0.2605
  49   0.0000       0.026022         0.7081
  50   0.0000       0.034469         0.9379
  51   0.0000       0.037766         1.0277
  52   0.0000       0.064285         1.7493

MULLIKEN ATOMIC CHARGES
-----------------------
   0 C :    0.033477
   1 C :    0.016347
   2 H :    0.043527
   3 C :    0.005728
   4 H :    0.078309
   5 C :    0.102648
   6 H :    0.079908
   7 C :    0.009014
   8 H :    0.042532
   9 C :    0.205977
  10 H :    0.064847
  11 O :   -0.311893
  12 O :   -0.395528
  13 O :   -0.425669
  14 O :   -0.412009
  15 O :   -0.407706
  16 O :   -0.422864
  17 H :    0.109518
  18 H :    0.067708
  19 H :    0.303123
  20 H :    0.301879
  21 H :    0.312439
  22 H :    0.305030
  23 H :    0.293660
Sum of atomic charges:    0.0000000

LOEWDIN ATOMIC CHARGES
----------------------
   0 C :   -0.143728
   1 C :   -0.073018
   2 H :    0.100479
   3 C :   -0.068474
   4 H :    0.113465
   5 C :   -0.057954
   6 H :    0.119687
   7 C :   -0.102719
   8 H :    0.101774
   9 C :   -0.005232
  10 H :    0.101724
  11 O :   -0.150537
  12 O :   -0.301077
  13 O :   -0.326939
  14 O :   -0.314816
  15 O :   -0.311104
  16 O :   -0.331086
  17 H :    0.117465
  18 H :    0.097457
  19 H :    0.287608
  20 H :    0.281991
  21 H :    0.294517
  22 H :    0.288890
  23 H :    0.281627

  Mayer bond orders larger than 0.100000
B(  0-C ,  1-C ) :   1.0209 B(  0-C , 16-O ) :   1.0798 B(  0-C , 17-H ) :   0.8984
B(  0-C , 18-H ) :   0.9102 B(  1-C ,  2-H ) :   0.8782 B(  1-C ,  3-C ) :   1.0324
B(  1-C , 11-O ) :   1.0111 B(  3-C ,  4-H ) :   0.8877 B(  3-C ,  5-C ) :   1.0163
B(  3-C , 15-O ) :   1.0302 B(  5-C ,  6-H ) :   0.8613 B(  5-C ,  7-C ) :   1.0133
B(  5-C , 14-O ) :   1.0624 B(  7-C ,  8-H ) :   0.8388 B(  7-C ,  9-C ) :   1.0475
B(  7-C , 13-O ) :   1.0775 B(  9-C , 10-H ) :   0.8706 B(  9-C , 11-O ) :   1.0330
B(  9-C , 12-O ) :   1.0990 B( 12-O , 19-H ) :   0.8390 B( 13-O , 20-H ) :   0.8276
B( 14-O , 21-H ) :   0.8445 B( 15-O , 22-H ) :   0.8461 B( 16-O , 23-H ) :   0.8533

Dispersion correction           -0.024866239
FINAL SINGLE POINT ENERGY      -685.685352640136

DIPOLE MOMENT
-------------

Method             : SCF
Type of density    : Electron Density
Multiplicity       :   1
Irrep              :   0
Energy             :  -685.8149487610260167 Eh
Relativity type    :
Basis              : AO
                                X                 Y                 Z
Electronic contribution:      2.365795708      -1.693949872       1.102502426
Nuclear contribution   :     -3.129165337       1.816937767      -0.864152512
                        -----------------------------------------
Total Dipole Moment    :     -0.763369629       0.122987896       0.238349914
                        -----------------------------------------
Magnitude (a.u.)       :      0.809116737
Magnitude (Debye)      :      2.056611305

Rotational constants in cm-1:             0.033960             0.028788             0.023649
Rotational constants in MHz :          1018.083605           863.046093           708.988095

                             ****ORCA TERMINATED NORMALLY****
TOTAL RUN TIME: 0 days 0 hours 0 minutes 11 seconds 851 msec
