                         Program Version 6.0.0  -   RELEASE  -
|  1> ! pbe def2-sv(p) def2/J RI DEFGRID1 loosescf d4 GCP(DFT/SV(P)) printgap
|  2> %output
|  3>     printlevel normal
|  4> end
|  5> * xyz 0 1
|  6> C -2.2305599905 0.4185900199 -5.3461e-06
|  7> C -1.1992006781 -0.6858334772 9.5382e-06
|  8> Br 0.6416580219 0.0470964415 -9.417e-07
|  9> H -2.128108375 1.0444921229 -0.8833308668
| 10> H -3.2223171151 -0.0276771617 -0.00033407
| 11> H -2.1286036723 1.0445998723 0.8833949435
| 12> H -1.2591368931 -1.3053982626 -0.8924174483
| 13> H -1.2592370554 -1.3050381654 0.8927121395
| 14> *
| 15>
| 16>                          ****END OF INPUT****

CARTESIAN COORDINATES (ANGSTROEM)
---------------------------------
  C     -2.230560    0.418590   -0.000005
  C     -1.199201   -0.685833    0.000010
  Br     0.641658    0.047096   -0.000001
  H     -2.128108    1.044492   -0.883331
  H     -3.222317   -0.027677   -0.000334
  H     -2.128604    1.044600    0.883395
  H     -1.259137   -1.305398   -0.892417
  H     -1.259237   -1.305038    0.892712

 Total Charge           Charge          ....    0
 Multiplicity           Mult            ....    1
 Number of Electrons    NEL             ....   52
 Basis Dimension        Dim             ....   70

ORBITAL ENERGIES
----------------

  NO   OCC          E(Eh)            E(eV)
   0   2.0000    -480.918368    -13086.4541
   1   2.0000     -61.760720     -1680.5946
   2   2.0000     -55.691356     -1515.4388
   3   2.0000     -55.688256     -1515.3545
   4   2.0000     -55.688131     -1515.3511
   5   2.0000      -9.944030      -270.5908
   6   2.0000      -9.893960      -269.2284
   7   2.0000      -8.385806      -228.1894
   8   2.0000      -6.267784      -170.5551
   9   2.0000      -6.253403      -170.1638
  10   2.0000      -6.253266      -170.1600
  11   2.0000      -2.468880       -67.1816
  12   2.0000      -2.465337       -67.0852
  13   2.0000      -2.465230       -67.0823
  14   2.0000      -2.454478       -66.7897
  15   2.0000      -2.454462       -66.7893
  16   2.0000      -0.739412       -20.1204
  17   2.0000      -0.658285       -17.9128
  18   2.0000      -0.552571       -15.0362
  19   2.0000      -0.425987       -11.5917
  20   2.0000      -0.400213       -10.8904
  21   2.0000      -0.361678        -9.8418
  22   2.0000      -0.331028        -9.0077
  23   2.0000      -0.315632        -8.5888
  24   2.0000      -0.233516        -6.3543
  25   2.0000      -0.232319        -6.3217
  26   0.0000      -0.029389        -0.7997
  27   0.0000       0.042462         1.1555
  28   0.0000       0.084035         2.2867
  29   0.0000       0.084143         2.2897
  30   0.0000       0.107790         2.9331

MULLIKEN ATOMIC CHARGES
-----------------------
   0 C :   -0.264124
   1 C :   -0.259258
   2 Br:   -0.134425
   3 H :    0.123272
   4 H :    0.116492
   5 H :    0.123298
   6 H :    0.147378
   7 H :    0.147367
Sum of atomic charges:    0.0000000

LOEWDIN ATOMIC CHARGES
----------------------
   0 C :   -0.357852
   1 C :   -0.278573
   2 Br:   -0.008472
   3 H :    0.127725
   4 H :    0.129924
   5 H :    0.127731
   6 H :    0.129761
   7 H :    0.129756

  Mayer bond orders larger than 0.100000
B(  0-C ,  1-C ) :   1.1378 B(  0-C ,  3-H ) :   0.9525 B(  0-C ,  4-H ) :   0.9333
B(  0-C ,  5-H ) :   0.9525 B(  1-C ,  2-Br) :   1.0368 B(  1-C ,  6-H ) :   0.9308
B(  1-C ,  7-H ) :   0.9308

Dispersion correction           -0.004500333
FINAL SINGLE POINT ENERGY     -2652.461994944949

DIPOLE MOMENT
-------------

Method             : SCF
Type of density    : Electron Density
Multiplicity       :   1
Irrep              :   0
Energy             : -2652.4937929751531556 Eh
Relativity type    :
Basis              : AO
                                X                 Y                 Z
Electronic contribution:     14.591107177       0.730451272      -0.000032993
Nuclear contribution   :    -15.337283983      -0.952381131       0.000031915
                        -----------------------------------------
Total Dipole Moment    :     -0.746176806      -0.221929859      -0.000001078
                        -----------------------------------------
Magnitude (a.u.)       :      0.778481014
Magnitude (Debye)      :      1.978741484

Rotational constants in cm-1:             1.006702             0.124041             0.115234
Rotational constants in MHz :         30180.175103          3718.663686          3454.630487

                             ****ORCA TERMINATED NORMALLY****
TOTAL RUN TIME: 0 days 0 hours 0 minutes 4 seconds 27 msec
