                         Program Version 6.0.0  -   RELEASE  -
|  1> ! wb97x-v def2-tzvp def2/J RIJCOSX DEFGRID2 scfconv7 GCP(DFT/TZ) printgap
|  2> %output
|  3>     printlevel normal
|  4> end
|  5> * xyz 0 1
|  6> C -2.5524578281895547 -0.9412027219354344 0.36482247650199257
|  7> C -1.1393013334438216 -0.44775146938856375 0.6076186502652626
|  8> H -0.9818023622223423 -0.38010351945424786 1.6982201200984333
|  9> C -0.8422711141590238 0.913369579381575 -0.02841845944311069
| 10> H -1.0509584021968326 0.8675310542726713 -1.1027110871561072
| 11> C 0.6255979480009166 1.2662888169273456 0.18858431363870296
| 12> H 0.7976762313120593 1.4010779227329024 1.2700609823571023
| 13> C 1.5324843193345783 0.15129502844081855 -0.31071233711053614
| 14> H 1.4158559875688976 0.049259795162448466 -1.4026135015669237
| 15> C 1.1288459184129247 -1.1700545029716651 0.33798254013030177
| 16> H 1.2786107929009585 -1.1304384038890893 1.4271573863875946
| 17> O -0.2478158602262817 -1.4332252791244389 0.04964954378999181
| 18> O 1.8807453845589672 -2.256200868254556 -0.13169914123291512
| 19> O 2.8988701452368475 0.3970677185794747 0.02891414112093216
| 20> O 0.9941252822940316 2.45778295627584 -0.5154512816924472
| 21> O -1.6922748912589909 1.9374973865943559 0.49765308372962797
| 22> O -2.8894737040605065 -1.0207893329445525 -1.0250155798750462
| 23> H -3.2571880178005044 -0.2413162950440602 0.8208366772403582
| 24> H -2.673634022926457 -1.9190485803968793 0.850016171957166
| 25> H 1.897106504660844 -2.2179061306289345 -1.100053662232777
| 26> H 3.1356018030720527 1.2563337615593133 -0.34587664861517853
| 27> H 0.46416397833501544 3.1796911557717165 -0.1508361452063658
| 28> H -1.5338725192107876 1.988552404845477 1.4518791394477486
| 29> H -2.303515973750485 -1.6752226056122157 -1.4278161592504235
| 30> *
| 31>
| 32>                          ****END OF INPUT****

CARTESIAN COORDINATES (ANGSTROEM)
---------------------------------
  C     -2.552458   -0.941203    0.364822
  C     -1.139301   -0.447751    0.607619
  H     -0.981802   -0.380104    1.698220
  C     -0.842271    0.913370   -0.028418
  H     -1.050958    0.867531   -1.102711
  C      0.625598    1.266289    0.188584
  H      0.797676    1.401078    1.270061
  C      1.532484    0.151295   -0.310712
  H      1.415856    0.049260   -1.402614
  C      1.128846   -1.170055    0.337983
  H      1.278611   -1.130438    1.427157
  O     -0.247816   -1.433225    0.049650
  O      1.880745   -2.256201   -0.131699
  O      2.898870    0.397068    0.028914
  O      0.994125    2.457783   -0.515451
  O     -1.692275    1.937497    0.497653
  O     -2.889474   -1.020789   -1.025016
  H     -3.257188   -0.241316    0.820837
  H     -2.673634   -1.919049    0.850016
  H      1.897107   -2.217906   -1.100054
  H      3.135602    1.256334   -0.345877
  H      0.464164    3.179691   -0.150836
  H     -1.533873    1.988552    1.451879
  H     -2.303516   -1.675223   -1.427816

 Total Charge           Charge          ....    0
 Multiplicity           Mult            ....    1
 Number of Electrons    NEL             ....   96
 Basis Dimension        Dim             ....  444

ORBITAL ENERGIES
----------------

  NO   OCC          E(Eh)            E(eV)
   0   2.0000     -21.699060      -590.4614
   1   2.0000     -21.697662      -590.4234
   2   2.0000     -21.693451      -590.3088
   3   2.0000     -21.689843      -590.2106
   4   2.0000     -21.683219      -590.0304
   5   2.0000     -21.677307      -589.8695
   6   2.0000     -12.162002      -330.9449
   7   2.0000     -12.119680      -329.7933
   8   2.0000     -12.118907      -329.7722
   9   2.0000     -12.115940      -329.6915
  10   2.0000     -12.113536      -329.6261
  11   2.0000     -12.102363      -329.3220
  12   2.0000      -1.725964       -46.9659
  13   2.0000      -1.703339       -46.3502
  14   2.0000      -1.694882       -46.1201
  15   2.0000      -1.685084       -45.8535
  16   2.0000      -1.682379       -45.7799
  17   2.0000      -1.675921       -45.6041
  18   2.0000      -1.345053       -36.6008
  19   2.0000      -1.328810       -36.1588
  20   2.0000      -1.241739       -33.7894
  21   2.0000      -1.208421       -32.8828
  22   2.0000      -1.174609       -31.9627
  23   2.0000      -1.138900       -30.9910
  24   2.0000      -1.099577       -29.9210
  25   2.0000      -1.072484       -29.1838
  26   2.0000      -1.052271       -28.6337
  27   2.0000      -1.043743       -28.4017
  28   2.0000      -1.039329       -28.2816
  29   2.0000      -1.021058       -27.7844
  30   2.0000      -0.999361       -27.1940
  31   2.0000      -0.991924       -26.9916
  32   2.0000      -0.986124       -26.8338
  33   2.0000      -0.970596       -26.4113
  34   2.0000      -0.962543       -26.1921
  35   2.0000      -0.952949       -25.9311
  36   2.0000      -0.943007       -25.6605
  37   2.0000      -0.938645       -25.5418
  38   2.0000      -0.929522       -25.2936
  39   2.0000      -0.917947       -24.9786
  40   2.0000      -0.904590       -24.6152
  41   2.0000      -0.895516       -24.3682
  42   2.0000      -0.849367       -23.1124
  43   2.0000      -0.844933       -22.9918
  44   2.0000      -0.825727       -22.4692
  45   2.0000      -0.813654       -22.1407
  46   2.0000      -0.803503       -21.8644
  47   2.0000      -0.785481       -21.3740
  48   0.0000      -0.248725        -6.7682
  49   0.0000      -0.203928        -5.5492
  50   0.0000      -0.180027        -4.8988
  51   0.0000      -0.159338        -4.3358
  52   0.0000      -0.137940        -3.7535

MULLIKEN ATOMIC CHARGES
-----------------------
   0 C :    0.037655
   1 C :   -0.061368
   2 H :    0.072814
   3 C :    0.059666
   4 H :    0.092697
   5 C :    0.024799
   6 H :    0.081407
   7 C :    0.068169
   8 H :    0.078223
   9 C :    0.117553
  10 H :    0.077700
  11 O :   -0.256906
  12 O :   -0.388317
  13 O :   -0.419862
  14 O :   -0.446749
  15 O :   -0.436271
  16 O :   -0.455949
  17 H :    0.095172
  18 H :    0.111282
  19 H :    0.305901
  20 H :    0.316679
  21 H :    0.316759
  22 H :    0.298310
  23 H :    0.310635
Sum of atomic charges:    0.0000000

LOEWDIN ATOMIC CHARGES
----------------------
   0 C :   -0.308467
   1 C :   -0.312197
   2 H :    0.140783
   3 C :   -0.307348
   4 H :    0.155201
   5 C :   -0.324539
   6 H :    0.139094
   7 C :   -0.317372
   8 H :    0.141560
   9 C :   -0.398616
  10 H :    0.134981
  11 O :    0.180260
  12 O :    0.021282
  13 O :   -0.006168
  14 O :   -0.017138
  15 O :   -0.008029
  16 O :   -0.042435
  17 H :    0.133239
  18 H :    0.123301
  19 H :    0.178204
  20 H :    0.176906
  21 H :    0.175998
  22 H :    0.170263
  23 H :    0.171239

  Mayer bond orders larger than 0.100000
B(  0-C ,  1-C ) :   0.9854 B(  0-C , 16-O ) :   0.9994 B(  0-C , 17-H ) :   0.9559
B(  0-C , 18-H ) :   0.9798 B(  1-C ,  2-H ) :   0.9429 B(  1-C ,  3-C ) :   0.9682
B(  1-C , 11-O ) :   0.9875 B(  1-C , 16-O ) :   0.1136 B(  3-C ,  4-H ) :   0.9253
B(  3-C ,  5-C ) :   0.9755 B(  3-C , 15-O ) :   0.9848 B(  5-C ,  6-H ) :   0.9670
B(  5-C ,  7-C ) :   0.9531 B(  5-C , 14-O ) :   1.0716 B(  7-C ,  8-H ) :   0.9493
B(  7-C ,  9-C ) :   0.9626 B(  7-C , 13-O ) :   1.1125 B(  9-C , 10-H ) :   0.9750
B(  9-C , 11-O ) :   1.0263 B(  9-C , 12-O ) :   1.1688 B( 12-O , 19-H ) :   0.8884
B( 13-O , 20-H ) :   0.8849 B( 14-O , 21-H ) :   0.8853 B( 15-O , 22-H ) :   0.8922
B( 16-O , 23-H ) :   0.8915

FINAL SINGLE POINT ENERGY      -687.245321094292

DIPOLE MOMENT
-------------

Method             : SCF
Type of density    : Electron Density
Multiplicity       :   1
Irrep              :   0
Energy             :  -687.2642083567923237 Eh
Relativity type    :
Basis              : AO
                                X                 Y                 Z
Electronic contribution:      2.388664380      -0.551225695      -1.387865504
Nuclear contribution   :     -2.453618220       1.121717334       1.949821158
                        -----------------------------------------
Total Dipole Moment    :     -0.064953840       0.570491639       0.561955654
                        -----------------------------------------
Magnitude (a.u.)       :      0.803413884
Magnitude (Debye)      :      2.042115804

Rotational constants in cm-1:             0.039205             0.026498             0.017477
Rotational constants in MHz :          1175.334907           794.375649           523.951734

                             ****ORCA TERMINATED NORMALLY****
TOTAL RUN TIME: 0 days 0 hours 4 minutes 39 seconds 365 msec
