                         Program Version 6.0.0  -   RELEASE  -
|  1> ! wb97x-v def2-tzvp def2/J RIJCOSX DEFGRID2 scfconv7 GCP(DFT/TZ) printgap
|  2> %output
|  3>     printlevel normal
|  4> end
|  5> %cpcm
|  6>     smd true
|  7>     smdsolvent "water"
|  8> end
|  9> * xyz 0 1
| 10> C -2.5524578281895547 -0.9412027219354344 0.36482247650199257
| 11> C -1.1393013334438216 -0.44775146938856375 0.6076186502652626
| 12> H -0.9818023622223423 -0.38010351945424786 1.6982201200984333
| 13> C -0.8422711141590238 0.913369579381575 -0.02841845944311069
| 14> H -1.0509584021968326 0.8675310542726713 -1.1027110871561072
| 15> C 0.6255979480009166 1.2662888169273456 0.18858431363870296
| 16> H 0.7976762313120593 1.4010779227329024 1.2700609823571023
| 17> C 1.5324843193345783 0.15129502844081855 -0.31071233711053614
| 18> H 1.4158559875688976 0.049259795162448466 -1.4026135015669237
| 19> C 1.1288459184129247 -1.1700545029716651 0.33798254013030177
| 20> H 1.2786107929009585 -1.1304384038890893 1.4271573863875946
| 21> O -0.2478158602262817 -1.4332252791244389 0.04964954378999181
| 22> O 1.8807453845589672 -2.256200868254556 -0.13169914123291512
| 23> O 2.8988701452368475 0.3970677185794747 0.02891414112093216
| 24> O 0.9941252822940316 2.45778295627584 -0.5154512816924472
| 25> O -1.6922748912589909 1.9374973865943559 0.49765308372962797
| 26> O -2.8894737040605065 -1.0207893329445525 -1.0250155798750462
| 27> H -3.2571880178005044 -0.2413162950440602 0.8208366772403582
| 28> H -2.673634022926457 -1.9190485803968793 0.850016171957166
| 29> H 1.897106504660844 -2.2179061306289345 -1.100053662232777
| 30> H 3.1356018030720527 1.2563337615593133 -0.34587664861517853
| 31> H 0.46416397833501544 3.1796911557717165 -0.1508361452063658
| 32> H -1.5338725192107876 1.988552404845477 1.4518791394477486
| 33> H -2.303515973750485 -1.6752226056122157 -1.4278161592504235
| 34> *
| 35>
| 36>                          ****END OF INPUT****

CARTESIAN COORDINATES (ANGSTROEM)
---------------------------------
  C     -2.552458   -0.941203    0.364822
  C     -1.139301   -0.447751    0.607619
  H     -0.981802   -0.380104    1.698220
  C     -0.842271    0.913370   -0.028418
  H     -1.050958    0.867531   -1.102711
  C      0.625598    1.266289    0.188584
  H      0.797676    1.401078    1.270061
  C      1.532484    0.151295   -0.310712
  H      1.415856    0.049260   -1.402614
  C      1.128846   -1.170055    0.337983
  H      1.278611   -1.130438    1.427157
  O     -0.247816   -1.433225    0.049650
  O      1.880745   -2.256201   -0.131699
  O      2.898870    0.397068    0.028914
  O      0.994125    2.457783   -0.515451
  O     -1.692275    1.937497    0.497653
  O     -2.889474   -1.020789   -1.025016
  H     -3.257188   -0.241316    0.820837
  H     -2.673634   -1.919049    0.850016
  H      1.897107   -2.217906   -1.100054
  H      3.135602    1.256334   -0.345877
  H      0.464164    3.179691   -0.150836
  H     -1.533873    1.988552    1.451879
  H     -2.303516   -1.675223   -1.427816

 Total Charge           Charge          ....    0
 Multiplicity           Mult            ....    1
 Number of Electrons    NEL             ....   96
 Basis Dimension        Dim             ....  444

ORBITAL ENERGIES
----------------

  NO   OCC          E(Eh)            E(eV)
   0   2.0000     -21.691564      -590.2575
   1   2.0000     -21.691298      -590.2502
   2   2.0000     -21.683849      -590.0475
   3   2.0000     -21.682496      -590.0107
   4   2.0000     -21.681927      -589.9952
   5   2.0000     -21.677378      -589.8715
   6   2.0000     -12.153864      -330.7235
   7   2.0000     -12.104335      -329.3757
   8   2.0000     -12.103351      -329.3489
   9   2.0000     -12.101739      -329.3051
  10   2.0000     -12.099764      -329.2513
  11   2.0000     -12.091299      -329.0210
  12   2.0000      -1.723205       -46.8908
  13   2.0000      -1.690951       -46.0131
  14   2.0000      -1.686562       -45.8937
  15   2.0000      -1.681116       -45.7455
  16   2.0000      -1.678714       -45.6801
  17   2.0000      -1.675701       -45.5981
  18   2.0000      -1.331193       -36.2236
  19   2.0000      -1.318921       -35.8897
  20   2.0000      -1.232458       -33.5369
  21   2.0000      -1.199183       -32.6314
  22   2.0000      -1.166899       -31.7529
  23   2.0000      -1.131357       -30.7858
  24   2.0000      -1.092306       -29.7231
  25   2.0000      -1.062880       -28.9224
  26   2.0000      -1.046158       -28.4674
  27   2.0000      -1.037714       -28.2376
  28   2.0000      -1.030661       -28.0457
  29   2.0000      -1.019019       -27.7289
  30   2.0000      -0.995499       -27.0889
  31   2.0000      -0.982882       -26.7456
  32   2.0000      -0.977414       -26.5968
  33   2.0000      -0.967224       -26.3195
  34   2.0000      -0.962144       -26.1813
  35   2.0000      -0.948199       -25.8018
  36   2.0000      -0.940148       -25.5827
  37   2.0000      -0.931993       -25.3608
  38   2.0000      -0.924733       -25.1633
  39   2.0000      -0.911747       -24.8099
  40   2.0000      -0.896959       -24.4075
  41   2.0000      -0.892392       -24.2832
  42   2.0000      -0.841511       -22.8987
  43   2.0000      -0.834707       -22.7135
  44   2.0000      -0.814767       -22.1709
  45   2.0000      -0.801341       -21.8056
  46   2.0000      -0.792903       -21.5760
  47   2.0000      -0.771028       -20.9808
  48   0.0000      -0.236404        -6.4329
  49   0.0000      -0.192901        -5.2491
  50   0.0000      -0.169638        -4.6161
  51   0.0000      -0.148620        -4.0442
  52   0.0000      -0.126258        -3.4357

MULLIKEN ATOMIC CHARGES
-----------------------
   0 C :   -0.009291
   1 C :   -0.006605
   2 H :    0.124592
   3 C :    0.067434
   4 H :    0.102524
   5 C :    0.050133
   6 H :    0.115703
   7 C :    0.071018
   8 H :    0.110652
   9 C :    0.144263
  10 H :    0.116528
  11 O :   -0.326742
  12 O :   -0.496313
  13 O :   -0.521138
  14 O :   -0.529319
  15 O :   -0.534161
  16 O :   -0.555228
  17 H :    0.125999
  18 H :    0.131876
  19 H :    0.369904
  20 H :    0.362695
  21 H :    0.362223
  22 H :    0.363551
  23 H :    0.359702
Sum of atomic charges:    0.0000000

LOEWDIN ATOMIC CHARGES
----------------------
   0 C :   -0.308345
   1 C :   -0.297608
   2 H :    0.160034
   3 C :   -0.305624
   4 H :    0.152956
   5 C :   -0.311604
   6 H :    0.154180
   7 C :   -0.310822
   8 H :    0.153171
   9 C :   -0.401035
  10 H :    0.144148
  11 O :    0.161236
  12 O :   -0.018951
  13 O :   -0.043237
  14 O :   -0.044856
  15 O :   -0.039351
  16 O :   -0.082347
  17 H :    0.137469
  18 H :    0.129803
  19 H :    0.200805
  20 H :    0.192127
  21 H :    0.191795
  22 H :    0.197997
  23 H :    0.188061

  Mayer bond orders larger than 0.100000
B(  0-C ,  1-C ) :   0.9639 B(  0-C , 16-O ) :   0.9645 B(  0-C , 17-H ) :   0.9659
B(  0-C , 18-H ) :   0.9796 B(  1-C ,  2-H ) :   0.9498 B(  1-C ,  3-C ) :   0.9771
B(  1-C , 11-O ) :   0.9506 B(  3-C ,  4-H ) :   0.9313 B(  3-C ,  5-C ) :   0.9962
B(  3-C , 15-O ) :   0.9744 B(  5-C ,  6-H ) :   0.9611 B(  5-C ,  7-C ) :   0.9788
B(  5-C , 14-O ) :   1.0373 B(  7-C ,  8-H ) :   0.9527 B(  7-C ,  9-C ) :   0.9730
B(  7-C , 13-O ) :   1.0478 B(  9-C , 10-H ) :   0.9710 B(  9-C , 11-O ) :   1.0145
B(  9-C , 12-O ) :   1.1192 B( 12-O , 19-H ) :   0.8497 B( 13-O , 20-H ) :   0.8572
B( 14-O , 21-H ) :   0.8584 B( 15-O , 22-H ) :   0.8583 B( 16-O , 23-H ) :   0.8622

FINAL SINGLE POINT ENERGY      -687.287561968907

DIPOLE MOMENT
-------------

Method             : SCF
Type of density    : Electron Density
Multiplicity       :   1
Irrep              :   0
Energy             :  -687.3064492314069867 Eh
Relativity type    :
Basis              : AO
                                X                 Y                 Z
Electronic contribution:      2.348258108      -0.333331160      -0.992163455
Nuclear contribution   :     -2.453618220       1.121717334       1.949821158
                        -----------------------------------------
Total Dipole Moment    :     -0.105360112       0.788386175       0.957657704
                        -----------------------------------------
Magnitude (a.u.)       :      1.244894289
Magnitude (Debye)      :      3.164269814

Rotational constants in cm-1:             0.039205             0.026498             0.017477
Rotational constants in MHz :          1175.334907           794.375649           523.951734

                             ****ORCA TERMINATED NORMALLY****
TOTAL RUN TIME: 0 days 0 hours 5 minutes 15 seconds 285 msec
