                         Program Version 6.0.0  -   RELEASE  -
|  1> ! r2scan-3c def2/J RI DEFGRID2 scfconv6 printgap
|  2> %output
|  3>     printlevel normal
|  4> end
|  5> * xyz 0 1
|  6> C -1.8923216226 -1.236434755 -0.0238652996
|  7> C -1.5170051116 0.2382494055 0.021240745
|  8> C -0.0339704433 0.5022433437 0.0103954752
|  9> O 0.4532335527 1.616891868 0.0102691561
| 10> O 0.6953506871 -0.6037880419 -0.002265666
| 11> C 2.1172031822 -0.4651014313 -0.0133473082
| 12> H -2.9735772158 -1.3378359251 -0.01407061
| 13> H -1.5049047148 -1.7023325266 -0.925411713
| 14> H -1.4831117852 -1.7619417142 0.8341412267
| 15> H -1.9150561419 0.713001801 0.9210589299
| 16> H -1.9405654161 0.7752297214 -0.8303856782
| 17> H 2.4151227867 0.2815465845 -0.750611358
| 18> H 2.5067653842 -1.4462587241 -0.2665222957
| 19> H 2.4653235715 -0.150867276 0.9712080947
| 20> *
| 21>
| 22>                          ****END OF INPUT****

CARTESIAN COORDINATES (ANGSTROEM)
---------------------------------
  C     -1.892322   -1.236435   -0.023865
  C     -1.517005    0.238249    0.021241
  C     -0.033970    0.502243    0.010395
  O      0.453234    1.616892    0.010269
  O      0.695351   -0.603788   -0.002266
  C      2.117203   -0.465101   -0.013347
  H     -2.973577   -1.337836   -0.014071
  H     -1.504905   -1.702333   -0.925412
  H     -1.483112   -1.761942    0.834141
  H     -1.915056    0.713002    0.921059
  H     -1.940565    0.775230   -0.830386
  H      2.415123    0.281547   -0.750611
  H      2.506765   -1.446259   -0.266522
  H      2.465324   -0.150867    0.971208

 Total Charge           Charge          ....    0
 Multiplicity           Mult            ....    1
 Number of Electrons    NEL             ....   48
 Basis Dimension        Dim             ....  164

ORBITAL ENERGIES
----------------

  NO   OCC          E(Eh)            E(eV)
   0   2.0000     -19.002099      -517.0734
   1   2.0000     -18.926386      -515.0131
   2   2.0000     -10.153202      -276.2827
   3   2.0000     -10.088283      -274.5161
   4   2.0000     -10.046653      -273.3833
   5   2.0000     -10.025699      -272.8131
   6   2.0000      -1.075792       -29.2738
   7   2.0000      -0.974200       -26.5093
   8   2.0000      -0.762346       -20.7445
   9   2.0000      -0.693891       -18.8817
  10   2.0000      -0.616529       -16.7766
  11   2.0000      -0.537329       -14.6215
  12   2.0000      -0.469656       -12.7800
  13   2.0000      -0.463705       -12.6181
  14   2.0000      -0.433299       -11.7907
  15   2.0000      -0.422400       -11.4941
  16   2.0000      -0.392875       -10.6907
  17   2.0000      -0.363569        -9.8932
  18   2.0000      -0.360251        -9.8029
  19   2.0000      -0.338456        -9.2099
  20   2.0000      -0.321553        -8.7499
  21   2.0000      -0.319977        -8.7070
  22   2.0000      -0.273271        -7.4361
  23   2.0000      -0.233950        -6.3661
  24   0.0000      -0.014779        -0.4022
  25   0.0000       0.060947         1.6585
  26   0.0000       0.097749         2.6599
  27   0.0000       0.114754         3.1226
  28   0.0000       0.125413         3.4127

MULLIKEN ATOMIC CHARGES
-----------------------
   0 C :   -0.464795
   1 C :   -0.284911
   2 C :    0.358813
   3 O :   -0.418769
   4 O :   -0.158141
   5 C :   -0.296770
   6 H :    0.146318
   7 H :    0.154027
   8 H :    0.154477
   9 H :    0.166547
  10 H :    0.166669
  11 H :    0.170040
  12 H :    0.150491
  13 H :    0.156002
Sum of atomic charges:    0.0000000

LOEWDIN ATOMIC CHARGES
----------------------
   0 C :   -0.401206
   1 C :   -0.236329
   2 C :    0.356060
   3 O :   -0.432406
   4 O :   -0.610374
   5 C :   -0.041309
   6 H :    0.150098
   7 H :    0.159427
   8 H :    0.159978
   9 H :    0.181646
  10 H :    0.181590
  11 H :    0.182236
  12 H :    0.175923
  13 H :    0.174665

  Mayer bond orders larger than 0.100000
B(  0-C ,  1-C ) :   0.9113 B(  0-C ,  6-H ) :   0.9669 B(  0-C ,  7-H ) :   0.9779
B(  0-C ,  8-H ) :   0.9771 B(  1-C ,  2-C ) :   1.0155 B(  1-C ,  9-H ) :   0.9391
B(  1-C , 10-H ) :   0.9417 B(  2-C ,  3-O ) :   1.8307 B(  2-C ,  4-O ) :   1.0973
B(  4-O ,  5-C ) :   0.8447 B(  5-C , 11-H ) :   0.9625 B(  5-C , 12-H ) :   0.9708
B(  5-C , 13-H ) :   0.9586

Dispersion correction           -0.003014021
FINAL SINGLE POINT ENERGY      -307.631087540578

DIPOLE MOMENT
-------------

Method             : SCF
Type of density    : Electron Density
Multiplicity       :   1
Irrep              :   0
Energy             :  -307.6374998142254640 Eh
Relativity type    :
Basis              : AO
                                X                 Y                 Z
Electronic contribution:      2.223586812       3.487191106       0.050984840
Nuclear contribution   :     -2.262703211      -4.328185029      -0.056728226
                        -----------------------------------------
Total Dipole Moment    :     -0.039116399      -0.840993923      -0.005743386
                        -----------------------------------------
Magnitude (a.u.)       :      0.841922715
Magnitude (Debye)      :      2.139997472

Rotational constants in cm-1:             0.200313             0.091836             0.065263
Rotational constants in MHz :          6005.234323          2753.167151          1956.545950

                             ****ORCA TERMINATED NORMALLY****
TOTAL RUN TIME: 0 days 0 hours 0 minutes 16 seconds 775 msec
