                         Program Version 6.0.0  -   RELEASE  -
|  1> ! r2scan-3c def2/J RI DEFGRID2 scfconv6 printgap
|  2> %output
|  3>     printlevel normal
|  4> end
|  5> %cpcm
|  6>     smd true
|  7>     smdsolvent "water"
|  8> end
|  9> * xyz 0 1
| 10> C -1.8923216226 -1.236434755 -0.0238652996
| 11> C -1.5170051116 0.2382494055 0.021240745
| 12> C -0.0339704433 0.5022433437 0.0103954752
| 13> O 0.4532335527 1.616891868 0.0102691561
| 14> O 0.6953506871 -0.6037880419 -0.002265666
| 15> C 2.1172031822 -0.4651014313 -0.0133473082
| 16> H -2.9735772158 -1.3378359251 -0.01407061
| 17> H -1.5049047148 -1.7023325266 -0.925411713
| 18> H -1.4831117852 -1.7619417142 0.8341412267
| 19> H -1.9150561419 0.713001801 0.9210589299
| 20> H -1.9405654161 0.7752297214 -0.8303856782
| 21> H 2.4151227867 0.2815465845 -0.750611358
| 22> H 2.5067653842 -1.4462587241 -0.2665222957
| 23> H 2.4653235715 -0.150867276 0.9712080947
| 24> *
| 25>
| 26>                          ****END OF INPUT****

CARTESIAN COORDINATES (ANGSTROEM)
---------------------------------
  C     -1.892322   -1.236435   -0.023865
  C     -1.517005    0.238249    0.021241
  C     -0.033970    0.502243    0.010395
  O      0.453234    1.616892    0.010269
  O      0.695351   -0.603788   -0.002266
  C      2.117203   -0.465101   -0.013347
  H     -2.973577   -1.337836   -0.014071
  H     -1.504905   -1.702333   -0.925412
  H     -1.483112   -1.761942    0.834141
  H     -1.915056    0.713002    0.921059
  H     -1.940565    0.775230   -0.830386
  H      2.415123    0.281547   -0.750611
  H      2.506765   -1.446259   -0.266522
  H      2.465324   -0.150867    0.971208

 Total Charge           Charge          ....    0
 Multiplicity           Mult            ....    1
 Number of Electrons    NEL             ....   48
 Basis Dimension        Dim             ....  164

ORBITAL ENERGIES
----------------

  NO   OCC          E(Eh)            E(eV)
   0   2.0000     -19.006101      -517.1823
   1   2.0000     -18.941721      -515.4304
   2   2.0000     -10.162696      -276.5410
   3   2.0000     -10.076981      -274.2086
   4   2.0000     -10.039250      -273.1819
   5   2.0000     -10.015986      -272.5488
   6   2.0000      -1.081235       -29.4219
   7   2.0000      -0.987512       -26.8716
   8   2.0000      -0.756660       -20.5898
   9   2.0000      -0.686897       -18.6914
  10   2.0000      -0.610156       -16.6032
  11   2.0000      -0.533858       -14.5270
  12   2.0000      -0.467210       -12.7134
  13   2.0000      -0.462077       -12.5738
  14   2.0000      -0.449972       -12.2444
  15   2.0000      -0.412881       -11.2351
  16   2.0000      -0.385525       -10.4907
  17   2.0000      -0.360299        -9.8042
  18   2.0000      -0.359042        -9.7700
  19   2.0000      -0.331121        -9.0103
  20   2.0000      -0.322569        -8.7775
  21   2.0000      -0.312191        -8.4952
  22   2.0000      -0.280752        -7.6397
  23   2.0000      -0.250121        -6.8061
  24   0.0000      -0.021392        -0.5821
  25   0.0000       0.068133         1.8540
  26   0.0000       0.106396         2.8952
  27   0.0000       0.126021         3.4292
  28   0.0000       0.132040         3.5930

MULLIKEN ATOMIC CHARGES
-----------------------
   0 C :   -0.512509
   1 C :   -0.286166
   2 C :    0.403141
   3 O :   -0.511427
   4 O :   -0.170745
   5 C :   -0.329909
   6 H :    0.163922
   7 H :    0.165750
   8 H :    0.165430
   9 H :    0.188921
  10 H :    0.187603
  11 H :    0.177454
  12 H :    0.178540
  13 H :    0.179994
Sum of atomic charges:    0.0000000

LOEWDIN ATOMIC CHARGES
----------------------
   0 C :   -0.404728
   1 C :   -0.233402
   2 C :    0.367895
   3 O :   -0.498431
   4 O :   -0.609586
   5 C :   -0.038704
   6 H :    0.157031
   7 H :    0.161451
   8 H :    0.161771
   9 H :    0.190914
  10 H :    0.190304
  11 H :    0.184834
  12 H :    0.188249
  13 H :    0.182401

  Mayer bond orders larger than 0.100000
B(  0-C ,  1-C ) :   0.8923 B(  0-C ,  6-H ) :   0.9614 B(  0-C ,  7-H ) :   0.9778
B(  0-C ,  8-H ) :   0.9771 B(  1-C ,  2-C ) :   1.0225 B(  1-C ,  9-H ) :   0.9282
B(  1-C , 10-H ) :   0.9317 B(  2-C ,  3-O ) :   1.7592 B(  2-C ,  4-O ) :   1.1268
B(  4-O ,  5-C ) :   0.8257 B(  5-C , 11-H ) :   0.9581 B(  5-C , 12-H ) :   0.9607
B(  5-C , 13-H ) :   0.9525

Dispersion correction           -0.003014021
FINAL SINGLE POINT ENERGY      -307.636870999161

DIPOLE MOMENT
-------------

Method             : SCF
Type of density    : Electron Density
Multiplicity       :   1
Irrep              :   0
Energy             :  -307.6432832728079347 Eh
Relativity type    :
Basis              : AO
                                X                 Y                 Z
Electronic contribution:      2.153612261       3.173444942       0.053033266
Nuclear contribution   :     -2.262703211      -4.328185029      -0.056728226
                        -----------------------------------------
Total Dipole Moment    :     -0.109090949      -1.154740087      -0.003694960
                        -----------------------------------------
Magnitude (a.u.)       :      1.159887562
Magnitude (Debye)      :      2.948199885

Rotational constants in cm-1:             0.200313             0.091836             0.065263
Rotational constants in MHz :          6005.234323          2753.167151          1956.545950

                             ****ORCA TERMINATED NORMALLY****
TOTAL RUN TIME: 0 days 0 hours 0 minutes 21 seconds 123 msec
