                         Program Version 6.0.0  -   RELEASE  -
|  1> ! pbe def2-sv(p) def2/J RI DEFGRID1 loosescf d4 GCP(DFT/SV(P)) printgap
|  2> %output
|  3>     printlevel normal
|  4> end
|  5> * xyz 0 1
|  6> C -2.4972278908 1.0081301745 -0.0043512115
|  7> C -1.7182756428 -0.2078118663 -0.4968951265
|  8> C -0.5908302689 -0.6304003602 0.4570340039
|  9> C 0.8334050666 -0.1685127112 0.0914818952
| 10> C 1.3088548445 -0.8554522366 -1.191726628
| 11> C 0.9074524309 1.3492033541 -0.0835875588
| 12> C 1.7671818365 -0.5770681418 1.237206341
| 13> H -2.9559392338 0.7983063033 0.9597203643
| 14> H -1.8492614934 1.8725451879 0.1064511227
| 15> H -3.2870212726 1.2604318953 -0.7089984628
| 16> H -2.4192505431 -1.0384806531 -0.6048019344
| 17> H -1.3170958258 3.58869e-05 -1.4890597297
| 18> H -0.5692516812 -1.7210831742 0.517730861
| 19> H -0.8271193339 -0.2598666066 1.4570846027
| 20> H 2.3323306369 -0.5638032453 -1.4167386854
| 21> H 1.2774677318 -1.9369162929 -1.0793109319
| 22> H 0.6873158998 -0.5824497318 -2.0404916082
| 23> H 1.9363534473 1.6535530354 -0.2647290737
| 24> H 0.5564017766 1.8543758738 0.8133705233
| 25> H 0.3066747607 1.6756818395 -0.9278824933
| 26> H 1.7305373662 -1.6524289905 1.3970767982
| 27> H 2.7939450392 -0.3002618889 1.0089623379
| 28> H 1.4780662361 -0.0835083952 2.1624374598
| 29> *
| 30>
| 31>                          ****END OF INPUT****

CARTESIAN COORDINATES (ANGSTROEM)
---------------------------------
  C     -2.497228    1.008130   -0.004351
  C     -1.718276   -0.207812   -0.496895
  C     -0.590830   -0.630400    0.457034
  C      0.833405   -0.168513    0.091482
  C      1.308855   -0.855452   -1.191727
  C      0.907452    1.349203   -0.083588
  C      1.767182   -0.577068    1.237206
  H     -2.955939    0.798306    0.959720
  H     -1.849261    1.872545    0.106451
  H     -3.287021    1.260432   -0.708998
  H     -2.419251   -1.038481   -0.604802
  H     -1.317096    0.000036   -1.489060
  H     -0.569252   -1.721083    0.517731
  H     -0.827119   -0.259867    1.457085
  H      2.332331   -0.563803   -1.416739
  H      1.277468   -1.936916   -1.079311
  H      0.687316   -0.582450   -2.040492
  H      1.936353    1.653553   -0.264729
  H      0.556402    1.854376    0.813371
  H      0.306675    1.675682   -0.927882
  H      1.730537   -1.652429    1.397077
  H      2.793945   -0.300262    1.008962
  H      1.478066   -0.083508    2.162437

 Total Charge           Charge          ....    0
 Multiplicity           Mult            ....    1
 Number of Electrons    NEL             ....   58
 Basis Dimension        Dim             ....  130

ORBITAL ENERGIES
----------------

  NO   OCC          E(Eh)            E(eV)
   0   2.0000      -9.901758      -269.4405
   1   2.0000      -9.878747      -268.8144
   2   2.0000      -9.875794      -268.7340
   3   2.0000      -9.868613      -268.5386
   4   2.0000      -9.868543      -268.5367
   5   2.0000      -9.868026      -268.5227
   6   2.0000      -9.867405      -268.5057
   7   2.0000      -0.745158       -20.2768
   8   2.0000      -0.686079       -18.6692
   9   2.0000      -0.611384       -16.6366
  10   2.0000      -0.608905       -16.5691
  11   2.0000      -0.600002       -16.3269
  12   2.0000      -0.523615       -14.2483
  13   2.0000      -0.465774       -12.6744
  14   2.0000      -0.419230       -11.4078
  15   2.0000      -0.408109       -11.1052
  16   2.0000      -0.391758       -10.6603
  17   2.0000      -0.375646       -10.2218
  18   2.0000      -0.365817        -9.9544
  19   2.0000      -0.354962        -9.6590
  20   2.0000      -0.334442        -9.1006
  21   2.0000      -0.328094        -8.9279
  22   2.0000      -0.317606        -8.6425
  23   2.0000      -0.308404        -8.3921
  24   2.0000      -0.299109        -8.1392
  25   2.0000      -0.291322        -7.9273
  26   2.0000      -0.272240        -7.4080
  27   2.0000      -0.266678        -7.2567
  28   2.0000      -0.261442        -7.1142
  29   0.0000       0.029416         0.8004
  30   0.0000       0.060774         1.6537
  31   0.0000       0.067327         1.8321
  32   0.0000       0.071101         1.9348
  33   0.0000       0.085252         2.3198

MULLIKEN ATOMIC CHARGES
-----------------------
   0 C :   -0.295477
   1 C :   -0.167290
   2 C :   -0.095562
   3 C :   -0.275744
   4 C :   -0.213109
   5 C :   -0.215506
   6 C :   -0.203420
   7 H :    0.099944
   8 H :    0.104594
   9 H :    0.098909
  10 H :    0.080311
  11 H :    0.091308
  12 H :    0.070479
  13 H :    0.072207
  14 H :    0.091744
  15 H :    0.091347
  16 H :    0.099153
  17 H :    0.091277
  18 H :    0.097623
  19 H :    0.103132
  20 H :    0.090922
  21 H :    0.091233
  22 H :    0.091923
Sum of atomic charges:   -0.0000000

LOEWDIN ATOMIC CHARGES
----------------------
   0 C :   -0.342226
   1 C :   -0.236857
   2 C :   -0.207899
   3 C :   -0.106293
   4 C :   -0.316951
   5 C :   -0.317706
   6 C :   -0.315565
   7 H :    0.115932
   8 H :    0.115866
   9 H :    0.117352
  10 H :    0.117133
  11 H :    0.113447
  12 H :    0.113425
  13 H :    0.112374
  14 H :    0.116071
  15 H :    0.115479
  16 H :    0.114397
  17 H :    0.116370
  18 H :    0.115828
  19 H :    0.116141
  20 H :    0.114827
  21 H :    0.114333
  22 H :    0.114523

  Mayer bond orders larger than 0.100000
B(  0-C ,  1-C ) :   1.1593 B(  0-C ,  7-H ) :   0.9522 B(  0-C ,  8-H ) :   0.9489
B(  0-C ,  9-H ) :   0.9509 B(  1-C ,  2-C ) :   1.0951 B(  1-C , 10-H ) :   0.9258
B(  1-C , 11-H ) :   0.9223 B(  2-C ,  3-C ) :   1.0578 B(  2-C , 12-H ) :   0.9170
B(  2-C , 13-H ) :   0.9213 B(  3-C ,  4-C ) :   1.0739 B(  3-C ,  5-C ) :   1.0797
B(  3-C ,  6-C ) :   1.0748 B(  4-C , 14-H ) :   0.9475 B(  4-C , 15-H ) :   0.9483
B(  4-C , 16-H ) :   0.9407 B(  5-C , 17-H ) :   0.9447 B(  5-C , 18-H ) :   0.9432
B(  5-C , 19-H ) :   0.9380 B(  6-C , 20-H ) :   0.9476 B(  6-C , 21-H ) :   0.9473
B(  6-C , 22-H ) :   0.9463

Dispersion correction           -0.019491865
FINAL SINGLE POINT ENERGY      -275.659572894907

DIPOLE MOMENT
-------------

Method             : SCF
Type of density    : Electron Density
Multiplicity       :   1
Irrep              :   0
Energy             :  -275.7366512639836174 Eh
Relativity type    :
Basis              : AO
                                X                 Y                 Z
Electronic contribution:      0.112625120      -0.933370646       0.082854834
Nuclear contribution   :     -0.118064323       0.915768502      -0.102427386
                        -----------------------------------------
Total Dipole Moment    :     -0.005439203      -0.017602144      -0.019572552
                        -----------------------------------------
Magnitude (a.u.)       :      0.026879457
Magnitude (Debye)      :      0.068322150

Rotational constants in cm-1:             0.128866             0.052663             0.051042
Rotational constants in MHz :          3863.295885          1578.791074          1530.197722

                             ****ORCA TERMINATED NORMALLY****
TOTAL RUN TIME: 0 days 0 hours 0 minutes 7 seconds 988 msec
