                         Program Version 6.0.0  -   RELEASE  -
|  1> ! r2scan-3c def2/J RI DEFGRID2 scfconv6 printgap
|  2> %output
|  3>     printlevel normal
|  4> end
|  5> * xyz 0 1
|  6> C -2.7339412635 -0.2566751853 -0.00010179
|  7> C -2.3436377295 1.090924892 0.0001144717
|  8> C -1.0173841024 1.4232828403 0.0001644402
|  9> C -0.0270127362 0.4211883041 -1.412e-07
| 10> C -0.4160455513 -0.9425705376 -2.9529e-05
| 11> C -1.7930767477 -1.2485323762 -0.0001524439
| 12> C 0.5749569668 -1.9468070032 3.2098e-06
| 13> C 1.8984452395 -1.6093189664 8.14553e-05
| 14> C 2.2959816792 -0.2653048642 7.75897e-05
| 15> C 1.3594638086 0.7389308463 -1.59549e-05
| 16> O 1.6995781936 2.0551040286 -0.0001863801
| 17> H -3.7852298832 -0.5037066792 2.53735e-05
| 18> H -3.0981996448 1.8630962647 0.0004890583
| 19> H -0.7011166305 2.455311176 0.0004175517
| 20> H -2.0899751819 -2.2873763073 -0.0001550379
| 21> H 0.2682753806 -2.9819318313 6.19252e-05
| 22> H 2.6581622406 -2.3763843971 0.0003451807
| 23> H 3.3494259188 -0.0246519893 0.0002539401
| 24> H 2.6634644685 2.1557696785 -0.0001633384
| 25> *
| 26>
| 27>                          ****END OF INPUT****

CARTESIAN COORDINATES (ANGSTROEM)
---------------------------------
  C     -2.733941   -0.256675   -0.000102
  C     -2.343638    1.090925    0.000114
  C     -1.017384    1.423283    0.000164
  C     -0.027013    0.421188   -0.000000
  C     -0.416046   -0.942571   -0.000030
  C     -1.793077   -1.248532   -0.000152
  C      0.574957   -1.946807    0.000003
  C      1.898445   -1.609319    0.000081
  C      2.295982   -0.265305    0.000078
  C      1.359464    0.738931   -0.000016
  O      1.699578    2.055104   -0.000186
  H     -3.785230   -0.503707    0.000025
  H     -3.098200    1.863096    0.000489
  H     -0.701117    2.455311    0.000418
  H     -2.089975   -2.287376   -0.000155
  H      0.268275   -2.981932    0.000062
  H      2.658162   -2.376384    0.000345
  H      3.349426   -0.024652    0.000254
  H      2.663464    2.155770   -0.000163

 Total Charge           Charge          ....    0
 Multiplicity           Mult            ....    1
 Number of Electrons    NEL             ....   76
 Basis Dimension        Dim             ....  254

ORBITAL ENERGIES
----------------

  NO   OCC          E(Eh)            E(eV)
   0   2.0000     -18.992288      -516.8064
   1   2.0000     -10.102170      -274.8940
   2   2.0000     -10.045566      -273.3537
   3   2.0000     -10.044249      -273.3179
   4   2.0000     -10.038000      -273.1479
   5   2.0000     -10.035227      -273.0724
   6   2.0000     -10.035001      -273.0663
   7   2.0000     -10.034685      -273.0577
   8   2.0000     -10.034229      -273.0452
   9   2.0000     -10.033237      -273.0183
  10   2.0000     -10.028598      -272.8920
  11   2.0000      -1.036271       -28.1984
  12   2.0000      -0.843885       -22.9633
  13   2.0000      -0.792012       -21.5518
  14   2.0000      -0.739698       -20.1282
  15   2.0000      -0.715159       -19.4605
  16   2.0000      -0.686315       -18.6756
  17   2.0000      -0.606092       -16.4926
  18   2.0000      -0.590624       -16.0717
  19   2.0000      -0.572256       -15.5719
  20   2.0000      -0.515722       -14.0335
  21   2.0000      -0.488605       -13.2956
  22   2.0000      -0.473495       -12.8845
  23   2.0000      -0.449832       -12.2406
  24   2.0000      -0.421052       -11.4574
  25   2.0000      -0.398812       -10.8522
  26   2.0000      -0.394220       -10.7273
  27   2.0000      -0.393949       -10.7199
  28   2.0000      -0.375264       -10.2114
  29   2.0000      -0.358522        -9.7559
  30   2.0000      -0.343549        -9.3484
  31   2.0000      -0.341225        -9.2852
  32   2.0000      -0.309323        -8.4171
  33   2.0000      -0.302138        -8.2216
  34   2.0000      -0.301045        -8.1918
  35   2.0000      -0.249567        -6.7911
  36   2.0000      -0.233223        -6.3463
  37   2.0000      -0.190095        -5.1727
  38   0.0000      -0.060929        -1.6580
  39   0.0000      -0.036939        -1.0052
  40   0.0000       0.008330         0.2267
  41   0.0000       0.051063         1.3895
  42   0.0000       0.067732         1.8431

MULLIKEN ATOMIC CHARGES
-----------------------
   0 C :   -0.142345
   1 C :   -0.141162
   2 C :   -0.259161
   3 C :   -0.007573
   4 C :    0.202141
   5 C :   -0.225419
   6 C :   -0.304631
   7 C :   -0.124568
   8 C :   -0.342444
   9 C :    0.410131
  10 O :   -0.404135
  11 H :    0.145058
  12 H :    0.145033
  13 H :    0.166502
  14 H :    0.143797
  15 H :    0.143794
  16 H :    0.145704
  17 H :    0.134613
  18 H :    0.314667
Sum of atomic charges:   -0.0000000

LOEWDIN ATOMIC CHARGES
----------------------
   0 C :   -0.161004
   1 C :   -0.166361
   2 C :   -0.123659
   3 C :   -0.034262
   4 C :   -0.051276
   5 C :   -0.145345
   6 C :   -0.171152
   7 C :   -0.153246
   8 C :   -0.181073
   9 C :    0.204442
  10 O :   -0.501961
  11 H :    0.167374
  12 H :    0.167629
  13 H :    0.185037
  14 H :    0.170723
  15 H :    0.170145
  16 H :    0.168561
  17 H :    0.168453
  18 H :    0.286976

  Mayer bond orders larger than 0.100000
B(  0-C ,  1-C ) :   1.2690 B(  0-C ,  5-C ) :   1.5112 B(  0-C , 11-H ) :   0.9476
B(  1-C ,  2-C ) :   1.4692 B(  1-C , 12-H ) :   0.9529 B(  2-C ,  3-C ) :   1.2584
B(  2-C ,  9-C ) :  -0.1017 B(  2-C , 13-H ) :   0.9674 B(  3-C ,  4-C ) :   1.4662
B(  3-C ,  9-C ) :   1.3253 B(  4-C ,  5-C ) :   1.1939 B(  4-C ,  6-C ) :   1.1636
B(  5-C , 14-H ) :   0.9521 B(  6-C ,  7-C ) :   1.5220 B(  6-C , 15-H ) :   0.9474
B(  7-C ,  8-C ) :   1.2577 B(  7-C , 16-H ) :   0.9429 B(  8-C ,  9-C ) :   1.3502
B(  8-C , 17-H ) :   0.9531 B(  9-C , 10-O ) :   0.9505 B( 10-O , 18-H ) :   0.8797

Dispersion correction           -0.007502256
FINAL SINGLE POINT ENERGY      -461.005107092999

DIPOLE MOMENT
-------------

Method             : SCF
Type of density    : Electron Density
Multiplicity       :   1
Irrep              :   0
Energy             :  -461.0025178275760709 Eh
Relativity type    :
Basis              : AO
                                X                 Y                 Z
Electronic contribution:      1.162578552       1.569496573      -0.000842315
Nuclear contribution   :     -0.664566182      -1.564336486       0.001193083
                        -----------------------------------------
Total Dipole Moment    :      0.498012370       0.005160086       0.000350767
                        -----------------------------------------
Magnitude (a.u.)       :      0.498039226
Magnitude (Debye)      :      1.265915108

Rotational constants in cm-1:             0.065596             0.038093             0.024098
Rotational constants in MHz :          1966.516789          1141.989442           722.450353

                             ****ORCA TERMINATED NORMALLY****
TOTAL RUN TIME: 0 days 0 hours 0 minutes 30 seconds 744 msec
