                         Program Version 6.0.0  -   RELEASE  -
|  1> ! r2scan-3c def2/J RI DEFGRID2 scfconv6 printgap
|  2> %output
|  3>     printlevel normal
|  4> end
|  5> %cpcm
|  6>     smd true
|  7>     smdsolvent "water"
|  8> end
|  9> * xyz 0 1
| 10> C -2.7339412635 -0.2566751853 -0.00010179
| 11> C -2.3436377295 1.090924892 0.0001144717
| 12> C -1.0173841024 1.4232828403 0.0001644402
| 13> C -0.0270127362 0.4211883041 -1.412e-07
| 14> C -0.4160455513 -0.9425705376 -2.9529e-05
| 15> C -1.7930767477 -1.2485323762 -0.0001524439
| 16> C 0.5749569668 -1.9468070032 3.2098e-06
| 17> C 1.8984452395 -1.6093189664 8.14553e-05
| 18> C 2.2959816792 -0.2653048642 7.75897e-05
| 19> C 1.3594638086 0.7389308463 -1.59549e-05
| 20> O 1.6995781936 2.0551040286 -0.0001863801
| 21> H -3.7852298832 -0.5037066792 2.53735e-05
| 22> H -3.0981996448 1.8630962647 0.0004890583
| 23> H -0.7011166305 2.455311176 0.0004175517
| 24> H -2.0899751819 -2.2873763073 -0.0001550379
| 25> H 0.2682753806 -2.9819318313 6.19252e-05
| 26> H 2.6581622406 -2.3763843971 0.0003451807
| 27> H 3.3494259188 -0.0246519893 0.0002539401
| 28> H 2.6634644685 2.1557696785 -0.0001633384
| 29> *
| 30>
| 31>                          ****END OF INPUT****

CARTESIAN COORDINATES (ANGSTROEM)
---------------------------------
  C     -2.733941   -0.256675   -0.000102
  C     -2.343638    1.090925    0.000114
  C     -1.017384    1.423283    0.000164
  C     -0.027013    0.421188   -0.000000
  C     -0.416046   -0.942571   -0.000030
  C     -1.793077   -1.248532   -0.000152
  C      0.574957   -1.946807    0.000003
  C      1.898445   -1.609319    0.000081
  C      2.295982   -0.265305    0.000078
  C      1.359464    0.738931   -0.000016
  O      1.699578    2.055104   -0.000186
  H     -3.785230   -0.503707    0.000025
  H     -3.098200    1.863096    0.000489
  H     -0.701117    2.455311    0.000418
  H     -2.089975   -2.287376   -0.000155
  H      0.268275   -2.981932    0.000062
  H      2.658162   -2.376384    0.000345
  H      3.349426   -0.024652    0.000254
  H      2.663464    2.155770   -0.000163

 Total Charge           Charge          ....    0
 Multiplicity           Mult            ....    1
 Number of Electrons    NEL             ....   76
 Basis Dimension        Dim             ....  254

ORBITAL ENERGIES
----------------

  NO   OCC          E(Eh)            E(eV)
   0   2.0000     -18.986644      -516.6529
   1   2.0000     -10.101728      -274.8820
   2   2.0000     -10.048135      -273.4237
   3   2.0000     -10.047131      -273.3963
   4   2.0000     -10.036772      -273.1145
   5   2.0000     -10.036092      -273.0959
   6   2.0000     -10.035538      -273.0809
   7   2.0000     -10.034849      -273.0621
   8   2.0000     -10.034220      -273.0450
   9   2.0000     -10.030713      -272.9496
  10   2.0000     -10.027922      -272.8736
  11   2.0000      -1.030757       -28.0483
  12   2.0000      -0.846602       -23.0372
  13   2.0000      -0.793036       -21.5796
  14   2.0000      -0.741147       -20.1676
  15   2.0000      -0.715675       -19.4745
  16   2.0000      -0.686340       -18.6763
  17   2.0000      -0.603442       -16.4205
  18   2.0000      -0.590334       -16.0638
  19   2.0000      -0.570830       -15.5331
  20   2.0000      -0.512289       -13.9401
  21   2.0000      -0.486653       -13.2425
  22   2.0000      -0.470717       -12.8088
  23   2.0000      -0.447263       -12.1706
  24   2.0000      -0.419973       -11.4281
  25   2.0000      -0.397775       -10.8240
  26   2.0000      -0.396500       -10.7893
  27   2.0000      -0.393199       -10.6995
  28   2.0000      -0.372415       -10.1339
  29   2.0000      -0.355351        -9.6696
  30   2.0000      -0.346739        -9.4353
  31   2.0000      -0.338584        -9.2133
  32   2.0000      -0.307654        -8.3717
  33   2.0000      -0.304591        -8.2883
  34   2.0000      -0.300742        -8.1836
  35   2.0000      -0.253594        -6.9006
  36   2.0000      -0.237156        -6.4533
  37   2.0000      -0.192734        -5.2446
  38   0.0000      -0.064338        -1.7507
  39   0.0000      -0.039983        -1.0880
  40   0.0000       0.004816         0.1311
  41   0.0000       0.066399         1.8068
  42   0.0000       0.074779         2.0348

MULLIKEN ATOMIC CHARGES
-----------------------
   0 C :   -0.173962
   1 C :   -0.183616
   2 C :   -0.281531
   3 C :   -0.001375
   4 C :    0.140414
   5 C :   -0.239898
   6 C :   -0.324937
   7 C :   -0.152482
   8 C :   -0.327789
   9 C :    0.350588
  10 O :   -0.441063
  11 H :    0.178768
  12 H :    0.177878
  13 H :    0.186820
  14 H :    0.179137
  15 H :    0.177271
  16 H :    0.179499
  17 H :    0.182762
  18 H :    0.373515
Sum of atomic charges:   -0.0000000

LOEWDIN ATOMIC CHARGES
----------------------
   0 C :   -0.169913
   1 C :   -0.173755
   2 C :   -0.139634
   3 C :   -0.049967
   4 C :   -0.067197
   5 C :   -0.151615
   6 C :   -0.184348
   7 C :   -0.161360
   8 C :   -0.174811
   9 C :    0.195389
  10 O :   -0.512143
  11 H :    0.179024
  12 H :    0.178958
  13 H :    0.190478
  14 H :    0.183254
  15 H :    0.181407
  16 H :    0.180185
  17 H :    0.187202
  18 H :    0.308847

  Mayer bond orders larger than 0.100000
B(  0-C ,  1-C ) :   1.2377 B(  0-C ,  5-C ) :   1.4753 B(  0-C , 11-H ) :   0.9590
B(  1-C ,  2-C ) :   1.4513 B(  1-C , 12-H ) :   0.9640 B(  2-C ,  3-C ) :   1.2079
B(  2-C ,  9-C ) :  -0.1019 B(  2-C , 13-H ) :   0.9803 B(  3-C ,  4-C ) :   1.3880
B(  3-C ,  9-C ) :   1.2841 B(  4-C ,  5-C ) :   1.1947 B(  4-C ,  6-C ) :   1.1596
B(  5-C , 14-H ) :   0.9601 B(  6-C ,  7-C ) :   1.4703 B(  6-C , 15-H ) :   0.9618
B(  7-C ,  8-C ) :   1.2137 B(  7-C , 16-H ) :   0.9606 B(  8-C ,  9-C ) :   1.3670
B(  8-C , 17-H ) :   0.9651 B(  9-C , 10-O ) :   0.9743 B( 10-O , 18-H ) :   0.8477

Dispersion correction           -0.007502256
FINAL SINGLE POINT ENERGY      -461.015199519715

DIPOLE MOMENT
-------------

Method             : SCF
Type of density    : Electron Density
Multiplicity       :   1
Irrep              :   0
Energy             :  -461.0126102542922695 Eh
Relativity type    :
Basis              : AO
                                X                 Y                 Z
Electronic contribution:      1.423056180       1.507108004      -0.000695776
Nuclear contribution   :     -0.664566182      -1.564336486       0.001193083
                        -----------------------------------------
Total Dipole Moment    :      0.758489999      -0.057228483       0.000497306
                        -----------------------------------------
Magnitude (a.u.)       :      0.760646057
Magnitude (Debye)      :      1.933408627

Rotational constants in cm-1:             0.065596             0.038093             0.024098
Rotational constants in MHz :          1966.516789          1141.989442           722.450353

                             ****ORCA TERMINATED NORMALLY****
TOTAL RUN TIME: 0 days 0 hours 0 minutes 38 seconds 100 msec
