                         Program Version 6.0.0  -   RELEASE  -
|  1> ! r2scan-3c def2/J RI DEFGRID2 scfconv6 printgap
|  2> %output
|  3>     printlevel normal
|  4> end
|  5> * xyz 0 1
|  6> C 3.6840151918 -0.282406667 0.1443408766
|  7> C 2.2054808146 -0.1873679805 0.0052339303
|  8> C 1.5605149489 0.9892738482 -0.0319952745
|  9> C 0.1260988804 1.1229646385 -0.216201883
| 10> O -0.4142135586 2.2253877588 -0.2536361325
| 11> C -0.6484012092 -0.1682316862 -0.4242229729
| 12> H -0.5350630931 -0.390182279 -1.4956243619
| 13> C 0.0098237906 -1.2990128261 0.3653530399
| 14> C 1.4532087197 -1.4750591436 -0.0934244347
| 15> C -2.1511238275 0.0287846775 -0.1538253299
| 16> C -2.9843952423 -1.1023710645 -0.7515356747
| 17> C -2.4513437222 0.1853129279 1.3358112686
| 18> H 4.1524541131 0.6955708841 0.0871531572
| 19> H 4.0898927753 -0.9241324214 -0.6352598895
| 20> H 3.9328606269 -0.7368147967 1.1024111149
| 21> H 2.1003126699 1.9226494882 0.0550479209
| 22> H 0.0008712909 -1.0547514162 1.4286678561
| 23> H -0.5439007563 -2.225884557 0.2185868515
| 24> H 1.952704061 -2.2437401793 0.4977302312
| 25> H 1.4679053305 -1.8034106042 -1.1379334787
| 26> H -2.4301749228 0.9661601532 -0.6505734977
| 27> H -2.7696866391 -2.0456713766 -0.2559361413
| 28> H -2.7825255125 -1.2117426558 -1.8144726025
| 29> H -4.0426955887 -0.8880765001 -0.6253684736
| 30> H -1.8310347051 0.9690848961 1.7661576249
| 31> H -2.2733492693 -0.7437605184 1.8709087646
| 32> H -3.4930493864 0.4643393945 1.4752481726
| 33> *
| 34>
| 35>                          ****END OF INPUT****

CARTESIAN COORDINATES (ANGSTROEM)
---------------------------------
  C      3.684015   -0.282407    0.144341
  C      2.205481   -0.187368    0.005234
  C      1.560515    0.989274   -0.031995
  C      0.126099    1.122965   -0.216202
  O     -0.414214    2.225388   -0.253636
  C     -0.648401   -0.168232   -0.424223
  H     -0.535063   -0.390182   -1.495624
  C      0.009824   -1.299013    0.365353
  C      1.453209   -1.475059   -0.093424
  C     -2.151124    0.028785   -0.153825
  C     -2.984395   -1.102371   -0.751536
  C     -2.451344    0.185313    1.335811
  H      4.152454    0.695571    0.087153
  H      4.089893   -0.924132   -0.635260
  H      3.932861   -0.736815    1.102411
  H      2.100313    1.922649    0.055048
  H      0.000871   -1.054751    1.428668
  H     -0.543901   -2.225885    0.218587
  H      1.952704   -2.243740    0.497730
  H      1.467905   -1.803411   -1.137933
  H     -2.430175    0.966160   -0.650573
  H     -2.769687   -2.045671   -0.255936
  H     -2.782526   -1.211743   -1.814473
  H     -4.042696   -0.888077   -0.625368
  H     -1.831035    0.969085    1.766158
  H     -2.273349   -0.743761    1.870909
  H     -3.493049    0.464339    1.475248

 Total Charge           Charge          ....    0
 Multiplicity           Mult            ....    1
 Number of Electrons    NEL             ....   84
 Basis Dimension        Dim             ....  294

ORBITAL ENERGIES
----------------

  NO   OCC          E(Eh)            E(eV)
   0   2.0000     -18.922769      -514.9147
   1   2.0000     -10.103914      -274.9415
   2   2.0000     -10.069560      -274.0067
   3   2.0000     -10.049059      -273.4488
   4   2.0000     -10.042758      -273.2773
   5   2.0000     -10.039475      -273.1880
   6   2.0000     -10.038019      -273.1484
   7   2.0000     -10.030178      -272.9350
   8   2.0000     -10.029510      -272.9169
   9   2.0000     -10.014333      -272.5038
  10   2.0000     -10.009795      -272.3804
  11   2.0000      -0.985867       -26.8268
  12   2.0000      -0.826087       -22.4790
  13   2.0000      -0.778343       -21.1798
  14   2.0000      -0.728625       -19.8269
  15   2.0000      -0.700961       -19.0741
  16   2.0000      -0.663034       -18.0421
  17   2.0000      -0.647410       -17.6169
  18   2.0000      -0.596596       -16.2342
  19   2.0000      -0.553628       -15.0650
  20   2.0000      -0.520505       -14.1637
  21   2.0000      -0.486607       -13.2412
  22   2.0000      -0.450988       -12.2720
  23   2.0000      -0.441861       -12.0236
  24   2.0000      -0.422155       -11.4874
  25   2.0000      -0.416743       -11.3402
  26   2.0000      -0.403939       -10.9917
  27   2.0000      -0.393763       -10.7148
  28   2.0000      -0.390643       -10.6299
  29   2.0000      -0.379816       -10.3353
  30   2.0000      -0.365275        -9.9396
  31   2.0000      -0.358625        -9.7587
  32   2.0000      -0.351871        -9.5749
  33   2.0000      -0.340983        -9.2786
  34   2.0000      -0.335175        -9.1206
  35   2.0000      -0.322888        -8.7862
  36   2.0000      -0.313293        -8.5251
  37   2.0000      -0.294419        -8.0115
  38   2.0000      -0.287926        -7.8349
  39   2.0000      -0.278339        -7.5740
  40   2.0000      -0.242255        -6.5921
  41   2.0000      -0.203015        -5.5243
  42   0.0000      -0.076406        -2.0791
  43   0.0000       0.028498         0.7755
  44   0.0000       0.073986         2.0133
  45   0.0000       0.086901         2.3647
  46   0.0000       0.101902         2.7729

MULLIKEN ATOMIC CHARGES
-----------------------
   0 C :   -0.512345
   1 C :    0.197060
   2 C :   -0.293179
   3 C :    0.150722
   4 O :   -0.357690
   5 C :   -0.044642
   6 H :    0.170914
   7 C :   -0.367680
   8 C :   -0.331346
   9 C :    0.010642
  10 C :   -0.495263
  11 C :   -0.570464
  12 H :    0.160568
  13 H :    0.158386
  14 H :    0.168164
  15 H :    0.166193
  16 H :    0.178776
  17 H :    0.161744
  18 H :    0.160534
  19 H :    0.183852
  20 H :    0.186188
  21 H :    0.148473
  22 H :    0.145618
  23 H :    0.151456
  24 H :    0.173153
  25 H :    0.148444
  26 H :    0.151723
Sum of atomic charges:   -0.0000000

LOEWDIN ATOMIC CHARGES
----------------------
   0 C :   -0.385252
   1 C :   -0.064035
   2 C :   -0.165794
   3 C :    0.230760
   4 O :   -0.487981
   5 C :   -0.189959
   6 H :    0.185667
   7 C :   -0.270140
   8 C :   -0.276178
   9 C :   -0.223036
  10 C :   -0.412878
  11 C :   -0.407090
  12 H :    0.163655
  13 H :    0.167809
  14 H :    0.169543
  15 H :    0.182470
  16 H :    0.168658
  17 H :    0.161665
  18 H :    0.166061
  19 H :    0.176958
  20 H :    0.181095
  21 H :    0.149474
  22 H :    0.152753
  23 H :    0.155443
  24 H :    0.164708
  25 H :    0.149910
  26 H :    0.155714

  Mayer bond orders larger than 0.100000
B(  0-C ,  1-C ) :   0.8383 B(  0-C , 12-H ) :   0.9929 B(  0-C , 13-H ) :   0.9624
B(  0-C , 14-H ) :   0.9664 B(  1-C ,  2-C ) :   1.6669 B(  1-C ,  8-C ) :   0.8616
B(  2-C ,  3-C ) :   1.1291 B(  2-C , 15-H ) :   0.9469 B(  3-C ,  4-O ) :   1.9187
B(  3-C ,  5-C ) :   0.9347 B(  5-C ,  6-H ) :   0.9406 B(  5-C ,  7-C ) :   0.8147
B(  5-C ,  9-C ) :   0.8634 B(  7-C ,  8-C ) :   0.9075 B(  7-C , 16-H ) :   0.9870
B(  7-C , 17-H ) :   0.9781 B(  8-C , 18-H ) :   0.9723 B(  8-C , 19-H ) :   0.9859
B(  9-C , 10-C ) :   0.8760 B(  9-C , 11-C ) :   0.8654 B(  9-C , 20-H ) :   0.9764
B( 10-C , 21-H ) :   0.9835 B( 10-C , 22-H ) :   0.9851 B( 10-C , 23-H ) :   0.9752
B( 11-C , 24-H ) :   0.9760 B( 11-C , 25-H ) :   0.9784 B( 11-C , 26-H ) :   0.9711

Dispersion correction           -0.009546786
FINAL SINGLE POINT ENERGY      -465.795031779947

DIPOLE MOMENT
-------------

Method             : SCF
Type of density    : Electron Density
Multiplicity       :   1
Irrep              :   0
Energy             :  -465.7969818715807833 Eh
Relativity type    :
Basis              : AO
                                X                 Y                 Z
Electronic contribution:      3.710757236       7.260401999      -1.738980105
Nuclear contribution   :     -2.824843973      -8.645380850       1.766318284
                        -----------------------------------------
Total Dipole Moment    :      0.885913262      -1.384978851       0.027338179
                        -----------------------------------------
Magnitude (a.u.)       :      1.644310221
Magnitude (Debye)      :      4.179504431

Rotational constants in cm-1:             0.066493             0.024313             0.020136
Rotational constants in MHz :          1993.401226           728.888911           603.672073

                             ****ORCA TERMINATED NORMALLY****
TOTAL RUN TIME: 0 days 0 hours 0 minutes 40 seconds 57 msec
