                         Program Version 6.0.0  -   RELEASE  -
|  1> ! r2scan-3c def2/J RI DEFGRID2 scfconv6 printgap
|  2> %output
|  3>     printlevel normal
|  4> end
|  5> %cpcm
|  6>     smd true
|  7>     smdsolvent "water"
|  8> end
|  9> * xyz 0 1
| 10> C 3.6840151918 -0.282406667 0.1443408766
| 11> C 2.2054808146 -0.1873679805 0.0052339303
| 12> C 1.5605149489 0.9892738482 -0.0319952745
| 13> C 0.1260988804 1.1229646385 -0.216201883
| 14> O -0.4142135586 2.2253877588 -0.2536361325
| 15> C -0.6484012092 -0.1682316862 -0.4242229729
| 16> H -0.5350630931 -0.390182279 -1.4956243619
| 17> C 0.0098237906 -1.2990128261 0.3653530399
| 18> C 1.4532087197 -1.4750591436 -0.0934244347
| 19> C -2.1511238275 0.0287846775 -0.1538253299
| 20> C -2.9843952423 -1.1023710645 -0.7515356747
| 21> C -2.4513437222 0.1853129279 1.3358112686
| 22> H 4.1524541131 0.6955708841 0.0871531572
| 23> H 4.0898927753 -0.9241324214 -0.6352598895
| 24> H 3.9328606269 -0.7368147967 1.1024111149
| 25> H 2.1003126699 1.9226494882 0.0550479209
| 26> H 0.0008712909 -1.0547514162 1.4286678561
| 27> H -0.5439007563 -2.225884557 0.2185868515
| 28> H 1.952704061 -2.2437401793 0.4977302312
| 29> H 1.4679053305 -1.8034106042 -1.1379334787
| 30> H -2.4301749228 0.9661601532 -0.6505734977
| 31> H -2.7696866391 -2.0456713766 -0.2559361413
| 32> H -2.7825255125 -1.2117426558 -1.8144726025
| 33> H -4.0426955887 -0.8880765001 -0.6253684736
| 34> H -1.8310347051 0.9690848961 1.7661576249
| 35> H -2.2733492693 -0.7437605184 1.8709087646
| 36> H -3.4930493864 0.4643393945 1.4752481726
| 37> *
| 38>
| 39>                          ****END OF INPUT****

CARTESIAN COORDINATES (ANGSTROEM)
---------------------------------
  C      3.684015   -0.282407    0.144341
  C      2.205481   -0.187368    0.005234
  C      1.560515    0.989274   -0.031995
  C      0.126099    1.122965   -0.216202
  O     -0.414214    2.225388   -0.253636
  C     -0.648401   -0.168232   -0.424223
  H     -0.535063   -0.390182   -1.495624
  C      0.009824   -1.299013    0.365353
  C      1.453209   -1.475059   -0.093424
  C     -2.151124    0.028785   -0.153825
  C     -2.984395   -1.102371   -0.751536
  C     -2.451344    0.185313    1.335811
  H      4.152454    0.695571    0.087153
  H      4.089893   -0.924132   -0.635260
  H      3.932861   -0.736815    1.102411
  H      2.100313    1.922649    0.055048
  H      0.000871   -1.054751    1.428668
  H     -0.543901   -2.225885    0.218587
  H      1.952704   -2.243740    0.497730
  H      1.467905   -1.803411   -1.137933
  H     -2.430175    0.966160   -0.650573
  H     -2.769687   -2.045671   -0.255936
  H     -2.782526   -1.211743   -1.814473
  H     -4.042696   -0.888077   -0.625368
  H     -1.831035    0.969085    1.766158
  H     -2.273349   -0.743761    1.870909
  H     -3.493049    0.464339    1.475248

 Total Charge           Charge          ....    0
 Multiplicity           Mult            ....    1
 Number of Electrons    NEL             ....   84
 Basis Dimension        Dim             ....  294

ORBITAL ENERGIES
----------------

  NO   OCC          E(Eh)            E(eV)
   0   2.0000     -18.936684      -515.2934
   1   2.0000     -10.112673      -275.1798
   2   2.0000     -10.064984      -273.8821
   3   2.0000     -10.031922      -272.9825
   4   2.0000     -10.031339      -272.9666
   5   2.0000     -10.027274      -272.8560
   6   2.0000     -10.025352      -272.8037
   7   2.0000     -10.024135      -272.7706
   8   2.0000     -10.023639      -272.7571
   9   2.0000     -10.006845      -272.3001
  10   2.0000     -10.006714      -272.2965
  11   2.0000      -1.001967       -27.2649
  12   2.0000      -0.816896       -22.2289
  13   2.0000      -0.772002       -21.0072
  14   2.0000      -0.717867       -19.5341
  15   2.0000      -0.693960       -18.8836
  16   2.0000      -0.651800       -17.7364
  17   2.0000      -0.642991       -17.4967
  18   2.0000      -0.586004       -15.9460
  19   2.0000      -0.549817       -14.9613
  20   2.0000      -0.515373       -14.0240
  21   2.0000      -0.477427       -12.9915
  22   2.0000      -0.443929       -12.0799
  23   2.0000      -0.437237       -11.8978
  24   2.0000      -0.416182       -11.3249
  25   2.0000      -0.411487       -11.1971
  26   2.0000      -0.396749       -10.7961
  27   2.0000      -0.388508       -10.5718
  28   2.0000      -0.384028       -10.4499
  29   2.0000      -0.371624       -10.1124
  30   2.0000      -0.356834        -9.7100
  31   2.0000      -0.352032        -9.5793
  32   2.0000      -0.348751        -9.4900
  33   2.0000      -0.334470        -9.1014
  34   2.0000      -0.325310        -8.8521
  35   2.0000      -0.317626        -8.6430
  36   2.0000      -0.303607        -8.2616
  37   2.0000      -0.291054        -7.9200
  38   2.0000      -0.283745        -7.7211
  39   2.0000      -0.272946        -7.4272
  40   2.0000      -0.239602        -6.5199
  41   2.0000      -0.216793        -5.8992
  42   0.0000      -0.077141        -2.0991
  43   0.0000       0.031738         0.8636
  44   0.0000       0.087455         2.3798
  45   0.0000       0.093923         2.5558
  46   0.0000       0.110871         3.0170

MULLIKEN ATOMIC CHARGES
-----------------------
   0 C :   -0.547306
   1 C :    0.217101
   2 C :   -0.370466
   3 C :    0.199335
   4 O :   -0.471894
   5 C :   -0.027363
   6 H :    0.200875
   7 C :   -0.381314
   8 C :   -0.337855
   9 C :    0.005821
  10 C :   -0.541113
  11 C :   -0.594210
  12 H :    0.175144
  13 H :    0.182464
  14 H :    0.191898
  15 H :    0.184624
  16 H :    0.188737
  17 H :    0.177500
  18 H :    0.182540
  19 H :    0.208524
  20 H :    0.168847
  21 H :    0.167178
  22 H :    0.159599
  23 H :    0.161498
  24 H :    0.167290
  25 H :    0.167524
  26 H :    0.165024
Sum of atomic charges:   -0.0000000

LOEWDIN ATOMIC CHARGES
----------------------
   0 C :   -0.386944
   1 C :   -0.031120
   2 C :   -0.192979
   3 C :    0.237827
   4 O :   -0.579557
   5 C :   -0.186660
   6 H :    0.197852
   7 C :   -0.266862
   8 C :   -0.271845
   9 C :   -0.223020
  10 C :   -0.418612
  11 C :   -0.415503
  12 H :    0.167667
  13 H :    0.178802
  14 H :    0.180978
  15 H :    0.186425
  16 H :    0.171144
  17 H :    0.168592
  18 H :    0.176240
  19 H :    0.188581
  20 H :    0.172714
  21 H :    0.156115
  22 H :    0.157166
  23 H :    0.156917
  24 H :    0.161050
  25 H :    0.157456
  26 H :    0.157577

  Mayer bond orders larger than 0.100000
B(  0-C ,  1-C ) :   0.8433 B(  0-C , 12-H ) :   0.9897 B(  0-C , 13-H ) :   0.9523
B(  0-C , 14-H ) :   0.9533 B(  1-C ,  2-C ) :   1.6484 B(  1-C ,  8-C ) :   0.8718
B(  2-C ,  3-C ) :   1.1134 B(  2-C , 15-H ) :   0.9485 B(  3-C ,  4-O ) :   1.8382
B(  3-C ,  5-C ) :   0.9407 B(  5-C ,  6-H ) :   0.9229 B(  5-C ,  7-C ) :   0.8142
B(  5-C ,  9-C ) :   0.8446 B(  7-C ,  8-C ) :   0.8891 B(  7-C , 16-H ) :   0.9869
B(  7-C , 17-H ) :   0.9709 B(  8-C , 18-H ) :   0.9671 B(  8-C , 19-H ) :   0.9780
B(  9-C , 10-C ) :   0.8817 B(  9-C , 11-C ) :   0.8735 B(  9-C , 20-H ) :   0.9867
B( 10-C , 21-H ) :   0.9796 B( 10-C , 22-H ) :   0.9804 B( 10-C , 23-H ) :   0.9740
B( 11-C , 24-H ) :   0.9743 B( 11-C , 25-H ) :   0.9742 B( 11-C , 26-H ) :   0.9712

Dispersion correction           -0.009546786
FINAL SINGLE POINT ENERGY      -465.803445124017

DIPOLE MOMENT
-------------

Method             : SCF
Type of density    : Electron Density
Multiplicity       :   1
Irrep              :   0
Energy             :  -465.8053952156510036 Eh
Relativity type    :
Basis              : AO
                                X                 Y                 Z
Electronic contribution:      4.203373995       6.352026901      -1.747204086
Nuclear contribution   :     -2.824843973      -8.645380850       1.766318284
                        -----------------------------------------
Total Dipole Moment    :      1.378530021      -2.293353948       0.019114198
                        -----------------------------------------
Magnitude (a.u.)       :      2.675851772
Magnitude (Debye)      :      6.801474682

Rotational constants in cm-1:             0.066493             0.024313             0.020136
Rotational constants in MHz :          1993.401226           728.888911           603.672073

                             ****ORCA TERMINATED NORMALLY****
TOTAL RUN TIME: 0 days 0 hours 0 minutes 50 seconds 952 msec
