                         Program Version 6.0.0  -   RELEASE  -
|  1> ! pbe def2-sv(p) def2/J RI DEFGRID1 loosescf d4 GCP(DFT/SV(P)) printgap
|  2> %output
|  3>     printlevel normal
|  4> end
|  5> * xyz 0 1
|  6> C 0.7366628834 -1.1515e-06 0.0122350529
|  7> N -0.7172776033 -3.8676e-06 -0.0714104493
|  8> H 1.1151303269 0.8832981283 -0.5002101817
|  9> H 1.1151086192 -0.8833605941 -0.5001348534
| 10> H 1.1291022359 7.07836e-05 1.0388769298
| 11> H -1.0849811687 -0.817042858 0.4040496882
| 12> H -1.0849734666 0.8171020074 0.4039691495
| 13> *
| 14>
| 15>                          ****END OF INPUT****

CARTESIAN COORDINATES (ANGSTROEM)
---------------------------------
  C      0.736663   -0.000001    0.012235
  N     -0.717278   -0.000004   -0.071410
  H      1.115130    0.883298   -0.500210
  H      1.115109   -0.883361   -0.500135
  H      1.129102    0.000071    1.038877
  H     -1.084981   -0.817043    0.404050
  H     -1.084973    0.817102    0.403969

 Total Charge           Charge          ....    0
 Multiplicity           Mult            ....    1
 Number of Electrons    NEL             ....   18
 Basis Dimension        Dim             ....   38

ORBITAL ENERGIES
----------------

  NO   OCC          E(Eh)            E(eV)
   0   2.0000     -13.954672      -379.7259
   1   2.0000      -9.896466      -269.2965
   2   2.0000      -0.783907       -21.3312
   3   2.0000      -0.582604       -15.8535
   4   2.0000      -0.437243       -11.8980
   5   2.0000      -0.386132       -10.5072
   6   2.0000      -0.351352        -9.5608
   7   2.0000      -0.320333        -8.7167
   8   2.0000      -0.176489        -4.8025
   9   0.0000       0.037104         1.0096
  10   0.0000       0.085111         2.3160
  11   0.0000       0.097680         2.6580
  12   0.0000       0.119688         3.2569
  13   0.0000       0.137703         3.7471

MULLIKEN ATOMIC CHARGES
-----------------------
   0 C :   -0.211461
   1 N :   -0.477757
   2 H :    0.104605
   3 H :    0.104607
   4 H :    0.079084
   5 H :    0.200461
   6 H :    0.200460
Sum of atomic charges:   -0.0000000

LOEWDIN ATOMIC CHARGES
----------------------
   0 C :   -0.284510
   1 N :   -0.430293
   2 H :    0.113222
   3 H :    0.113223
   4 H :    0.087109
   5 H :    0.200625
   6 H :    0.200625

  Mayer bond orders larger than 0.100000
B(  0-C ,  1-N ) :   1.1173 B(  0-C ,  2-H ) :   0.9666 B(  0-C ,  3-H ) :   0.9666
B(  0-C ,  4-H ) :   0.9472 B(  1-N ,  5-H ) :   0.9134 B(  1-N ,  6-H ) :   0.9134

Dispersion correction           -0.002087673
FINAL SINGLE POINT ENERGY       -95.603113984590

DIPOLE MOMENT
-------------

Method             : SCF
Type of density    : Electron Density
Multiplicity       :   1
Irrep              :   0
Energy             :   -95.6319224150755645 Eh
Relativity type    :
Basis              : AO
                                X                 Y                 Z
Electronic contribution:     -1.044464144      -0.000029886      -0.244507770
Nuclear contribution   :      1.111896724       0.000063274       0.793815831
                        -----------------------------------------
Total Dipole Moment    :      0.067432580       0.000033389       0.549308062
                        -----------------------------------------
Magnitude (a.u.)       :      0.553431568
Magnitude (Debye)      :      1.406711253

Rotational constants in cm-1:             3.430915             0.770314             0.739094
Rotational constants in MHz :        102856.247255         23093.428110         22157.490888

                             ****ORCA TERMINATED NORMALLY****
TOTAL RUN TIME: 0 days 0 hours 0 minutes 3 seconds 674 msec
