                         Program Version 6.0.0  -   RELEASE  -
|  1> ! wb97x-v def2-tzvp def2/J RIJCOSX DEFGRID2 scfconv7 GCP(DFT/TZ) printgap
|  2> %output
|  3>     printlevel normal
|  4> end
|  5> * xyz 0 1
|  6> C -3.6587530798198067 0.041395192437670356 0.011878833942681263
|  7> C -2.160833206354095 0.014934583539571127 -0.009544217897495802
|  8> C -1.4256236357097987 1.2060774781522237 -0.011249764215790551
|  9> C -0.038253017839575396 1.1899432954813123 -0.004521652742441638
| 10> C 0.6593766148597056 -0.026445000547644298 0.001108927443177673
| 11> C -0.07461635236672644 -1.2208671865706586 8.885877944843354e-07
| 12> C -1.4601203366267088 -1.197945459859167 -0.006019517307051092
| 13> C 2.141937664372577 -0.08127483178797673 0.00447225954175898
| 14> O 2.7307013910986644 -1.1653081780529595 0.003291017218171379
| 15> C 2.917065231135599 1.2049986157927925 0.007610836668623367
| 16> H -4.048797880301357 0.8399383099807558 -0.6256980105272598
| 17> H -4.078506085441691 -0.9128271681625834 -0.3152055792651065
| 18> H -4.021401567511096 0.23453247903574623 1.0288360090919895
| 19> H -1.9517772950238603 2.15639798211027 -0.018828437886421138
| 20> H 0.49982714805983064 2.131280778241397 -0.007107502957014993
| 21> H 0.45264987102728665 -2.1688191289649095 0.0009862036708776982
| 22> H -2.014811433985548 -2.1318526542632776 -0.00985787183084363
| 23> H 3.9854861498652365 0.9877456440863102 0.012452520263595808
| 24> H 2.6602208663163007 1.8058610128707968 0.8866695354038658
| 25> H 2.6686557060389444 1.8053985680665592 -0.8742407228482371
| 26> *
| 27>
| 28>                          ****END OF INPUT****

CARTESIAN COORDINATES (ANGSTROEM)
---------------------------------
  C     -3.658753    0.041395    0.011879
  C     -2.160833    0.014935   -0.009544
  C     -1.425624    1.206077   -0.011250
  C     -0.038253    1.189943   -0.004522
  C      0.659377   -0.026445    0.001109
  C     -0.074616   -1.220867    0.000001
  C     -1.460120   -1.197945   -0.006020
  C      2.141938   -0.081275    0.004472
  O      2.730701   -1.165308    0.003291
  C      2.917065    1.204999    0.007611
  H     -4.048798    0.839938   -0.625698
  H     -4.078506   -0.912827   -0.315206
  H     -4.021402    0.234532    1.028836
  H     -1.951777    2.156398   -0.018828
  H      0.499827    2.131281   -0.007108
  H      0.452650   -2.168819    0.000986
  H     -2.014811   -2.131853   -0.009858
  H      3.985486    0.987746    0.012453
  H      2.660221    1.805861    0.886670
  H      2.668656    1.805399   -0.874241

 Total Charge           Charge          ....    0
 Multiplicity           Mult            ....    1
 Number of Electrons    NEL             ....   72
 Basis Dimension        Dim             ....  370

ORBITAL ENERGIES
----------------

  NO   OCC          E(Eh)            E(eV)
   0   2.0000     -21.654874      -589.2591
   1   2.0000     -12.138547      -330.3067
   2   2.0000     -12.075641      -328.5949
   3   2.0000     -12.067880      -328.3837
   4   2.0000     -12.062681      -328.2422
   5   2.0000     -12.060083      -328.1715
   6   2.0000     -12.058832      -328.1375
   7   2.0000     -12.056555      -328.0755
   8   2.0000     -12.053501      -327.9924
   9   2.0000     -12.051133      -327.9280
  10   2.0000      -1.695719       -46.1429
  11   2.0000      -1.398671       -38.0598
  12   2.0000      -1.320653       -35.9368
  13   2.0000      -1.284734       -34.9594
  14   2.0000      -1.260280       -34.2940
  15   2.0000      -1.208727       -32.8911
  16   2.0000      -1.128813       -30.7166
  17   2.0000      -1.115905       -30.3653
  18   2.0000      -1.073420       -29.2093
  19   2.0000      -1.013082       -27.5674
  20   2.0000      -0.977265       -26.5927
  21   2.0000      -0.945928       -25.7400
  22   2.0000      -0.939210       -25.5572
  23   2.0000      -0.908011       -24.7082
  24   2.0000      -0.903413       -24.5831
  25   2.0000      -0.884454       -24.0672
  26   2.0000      -0.851021       -23.1575
  27   2.0000      -0.848745       -23.0955
  28   2.0000      -0.837707       -22.7952
  29   2.0000      -0.834590       -22.7103
  30   2.0000      -0.829699       -22.5773
  31   2.0000      -0.807418       -21.9710
  32   2.0000      -0.802036       -21.8245
  33   2.0000      -0.773905       -21.0590
  34   2.0000      -0.651941       -17.7402
  35   2.0000      -0.649279       -17.6678
  36   0.0000      -0.339895        -9.2490
  37   0.0000      -0.243747        -6.6327
  38   0.0000      -0.214195        -5.8285
  39   0.0000      -0.072143        -1.9631
  40   0.0000      -0.068249        -1.8572

MULLIKEN ATOMIC CHARGES
-----------------------
   0 C :   -0.365525
   1 C :    0.167193
   2 C :   -0.211706
   3 C :   -0.161637
   4 C :    0.068388
   5 C :   -0.151396
   6 C :   -0.169849
   7 C :    0.207358
   8 O :   -0.328487
   9 C :   -0.363174
  10 H :    0.124993
  11 H :    0.123106
  12 H :    0.130679
  13 H :    0.118799
  14 H :    0.133237
  15 H :    0.148976
  16 H :    0.120088
  17 H :    0.143576
  18 H :    0.132581
  19 H :    0.132799
Sum of atomic charges:   -0.0000000

LOEWDIN ATOMIC CHARGES
----------------------
   0 C :   -0.248144
   1 C :   -0.153549
   2 C :   -0.114552
   3 C :   -0.095258
   4 C :   -0.134057
   5 C :   -0.069154
   6 C :   -0.111675
   7 C :   -0.296720
   8 O :    0.100712
   9 C :   -0.258010
  10 H :    0.127916
  11 H :    0.126498
  12 H :    0.131834
  13 H :    0.145142
  14 H :    0.148001
  15 H :    0.155854
  16 H :    0.145355
  17 H :    0.132185
  18 H :    0.133773
  19 H :    0.133849

  Mayer bond orders larger than 0.100000
B(  0-C ,  1-C ) :   0.9231 B(  0-C , 10-H ) :   0.9866 B(  0-C , 11-H ) :   0.9936
B(  0-C , 12-H ) :   0.9615 B(  1-C ,  2-C ) :   1.3760 B(  1-C ,  6-C ) :   1.3685
B(  2-C ,  3-C ) :   1.4872 B(  2-C , 13-H ) :   0.9738 B(  3-C ,  4-C ) :   1.3162
B(  3-C , 14-H ) :   0.9583 B(  4-C ,  5-C ) :   1.3888 B(  4-C ,  7-C ) :   0.9475
B(  4-C ,  8-O ) :  -0.1333 B(  5-C ,  6-C ) :   1.4435 B(  5-C , 15-H ) :   0.9555
B(  6-C , 16-H ) :   0.9742 B(  7-C ,  8-O ) :   2.1105 B(  7-C ,  9-C ) :   1.0060
B(  9-C , 17-H ) :   0.9798 B(  9-C , 18-H ) :   0.9569 B(  9-C , 19-H ) :   0.9567

FINAL SINGLE POINT ENERGY      -424.231381250194

DIPOLE MOMENT
-------------

Method             : SCF
Type of density    : Electron Density
Multiplicity       :   1
Irrep              :   0
Energy             :  -424.2427446416941734 Eh
Relativity type    :
Basis              : AO
                                X                 Y                 Z
Electronic contribution:      4.433335815      -3.471188899      -0.053330038
Nuclear contribution   :     -5.485805769       4.456225300       0.069306747
                        -----------------------------------------
Total Dipole Moment    :     -1.052469954       0.985036401       0.015976709
                        -----------------------------------------
Magnitude (a.u.)       :      1.441611935
Magnitude (Debye)      :      3.664286334

Rotational constants in cm-1:             0.120606             0.026330             0.021787
Rotational constants in MHz :          3615.664361           789.361911           653.155390

                             ****ORCA TERMINATED NORMALLY****
TOTAL RUN TIME: 0 days 0 hours 4 minutes 7 seconds 855 msec
