                         Program Version 6.0.0  -   RELEASE  -
|  1> ! wb97x-v def2-tzvp def2/J RIJCOSX DEFGRID2 scfconv7 GCP(DFT/TZ) printgap
|  2> %output
|  3>     printlevel normal
|  4> end
|  5> %cpcm
|  6>     smd true
|  7>     smdsolvent "water"
|  8> end
|  9> * xyz 0 1
| 10> C -3.6587530798198067 0.041395192437670356 0.011878833942681263
| 11> C -2.160833206354095 0.014934583539571127 -0.009544217897495802
| 12> C -1.4256236357097987 1.2060774781522237 -0.011249764215790551
| 13> C -0.038253017839575396 1.1899432954813123 -0.004521652742441638
| 14> C 0.6593766148597056 -0.026445000547644298 0.001108927443177673
| 15> C -0.07461635236672644 -1.2208671865706586 8.885877944843354e-07
| 16> C -1.4601203366267088 -1.197945459859167 -0.006019517307051092
| 17> C 2.141937664372577 -0.08127483178797673 0.00447225954175898
| 18> O 2.7307013910986644 -1.1653081780529595 0.003291017218171379
| 19> C 2.917065231135599 1.2049986157927925 0.007610836668623367
| 20> H -4.048797880301357 0.8399383099807558 -0.6256980105272598
| 21> H -4.078506085441691 -0.9128271681625834 -0.3152055792651065
| 22> H -4.021401567511096 0.23453247903574623 1.0288360090919895
| 23> H -1.9517772950238603 2.15639798211027 -0.018828437886421138
| 24> H 0.49982714805983064 2.131280778241397 -0.007107502957014993
| 25> H 0.45264987102728665 -2.1688191289649095 0.0009862036708776982
| 26> H -2.014811433985548 -2.1318526542632776 -0.00985787183084363
| 27> H 3.9854861498652365 0.9877456440863102 0.012452520263595808
| 28> H 2.6602208663163007 1.8058610128707968 0.8866695354038658
| 29> H 2.6686557060389444 1.8053985680665592 -0.8742407228482371
| 30> *
| 31>
| 32>                          ****END OF INPUT****

CARTESIAN COORDINATES (ANGSTROEM)
---------------------------------
  C     -3.658753    0.041395    0.011879
  C     -2.160833    0.014935   -0.009544
  C     -1.425624    1.206077   -0.011250
  C     -0.038253    1.189943   -0.004522
  C      0.659377   -0.026445    0.001109
  C     -0.074616   -1.220867    0.000001
  C     -1.460120   -1.197945   -0.006020
  C      2.141938   -0.081275    0.004472
  O      2.730701   -1.165308    0.003291
  C      2.917065    1.204999    0.007611
  H     -4.048798    0.839938   -0.625698
  H     -4.078506   -0.912827   -0.315206
  H     -4.021402    0.234532    1.028836
  H     -1.951777    2.156398   -0.018828
  H      0.499827    2.131281   -0.007108
  H      0.452650   -2.168819    0.000986
  H     -2.014811   -2.131853   -0.009858
  H      3.985486    0.987746    0.012453
  H      2.660221    1.805861    0.886670
  H      2.668656    1.805399   -0.874241

 Total Charge           Charge          ....    0
 Multiplicity           Mult            ....    1
 Number of Electrons    NEL             ....   72
 Basis Dimension        Dim             ....  370

ORBITAL ENERGIES
----------------

  NO   OCC          E(Eh)            E(eV)
   0   2.0000     -21.666920      -589.5869
   1   2.0000     -12.148671      -330.5822
   2   2.0000     -12.069270      -328.4215
   3   2.0000     -12.061310      -328.2049
   4   2.0000     -12.059721      -328.1617
   5   2.0000     -12.057745      -328.1079
   6   2.0000     -12.049850      -327.8931
   7   2.0000     -12.049468      -327.8827
   8   2.0000     -12.040389      -327.6357
   9   2.0000     -12.036214      -327.5220
  10   2.0000      -1.711673       -46.5770
  11   2.0000      -1.394145       -37.9366
  12   2.0000      -1.315697       -35.8019
  13   2.0000      -1.279329       -34.8123
  14   2.0000      -1.254513       -34.1370
  15   2.0000      -1.198818       -32.6215
  16   2.0000      -1.126841       -30.6629
  17   2.0000      -1.109892       -30.2017
  18   2.0000      -1.078652       -29.3516
  19   2.0000      -1.016291       -27.6547
  20   2.0000      -0.974932       -26.5292
  21   2.0000      -0.946103       -25.7448
  22   2.0000      -0.932730       -25.3809
  23   2.0000      -0.918929       -25.0053
  24   2.0000      -0.899350       -24.4726
  25   2.0000      -0.877079       -23.8665
  26   2.0000      -0.843418       -22.9506
  27   2.0000      -0.834164       -22.6988
  28   2.0000      -0.825825       -22.4718
  29   2.0000      -0.823603       -22.4114
  30   2.0000      -0.822536       -22.3823
  31   2.0000      -0.806527       -21.9467
  32   2.0000      -0.794788       -21.6273
  33   2.0000      -0.769555       -20.9407
  34   2.0000      -0.647985       -17.6326
  35   2.0000      -0.644942       -17.5498
  36   0.0000      -0.339421        -9.2361
  37   0.0000      -0.238474        -6.4892
  38   0.0000      -0.211029        -5.7424
  39   0.0000      -0.066895        -1.8203
  40   0.0000      -0.062795        -1.7087

MULLIKEN ATOMIC CHARGES
-----------------------
   0 C :   -0.394770
   1 C :    0.153571
   2 C :   -0.248142
   3 C :   -0.182430
   4 C :    0.064987
   5 C :   -0.170630
   6 C :   -0.232292
   7 C :    0.282262
   8 O :   -0.460848
   9 C :   -0.385936
  10 H :    0.146279
  11 H :    0.145437
  12 H :    0.147575
  13 H :    0.161655
  14 H :    0.177260
  15 H :    0.156953
  16 H :    0.161625
  17 H :    0.146283
  18 H :    0.165441
  19 H :    0.165718
Sum of atomic charges:   -0.0000000

LOEWDIN ATOMIC CHARGES
----------------------
   0 C :   -0.247200
   1 C :   -0.152470
   2 C :   -0.113970
   3 C :   -0.087734
   4 C :   -0.144563
   5 C :   -0.084907
   6 C :   -0.116159
   7 C :   -0.281544
   8 O :    0.022314
   9 C :   -0.250685
  10 H :    0.133716
  11 H :    0.131799
  12 H :    0.137405
  13 H :    0.156307
  14 H :    0.161216
  15 H :    0.155572
  16 H :    0.155625
  17 H :    0.131907
  18 H :    0.146637
  19 H :    0.146733

  Mayer bond orders larger than 0.100000
B(  0-C ,  1-C ) :   0.9380 B(  0-C , 10-H ) :   0.9792 B(  0-C , 11-H ) :   0.9876
B(  0-C , 12-H ) :   0.9550 B(  1-C ,  2-C ) :   1.3500 B(  1-C ,  6-C ) :   1.3535
B(  2-C ,  3-C ) :   1.4627 B(  2-C , 13-H ) :   0.9831 B(  3-C ,  4-C ) :   1.3054
B(  3-C , 14-H ) :   0.9653 B(  4-C ,  5-C ) :   1.3204 B(  4-C ,  7-C ) :   0.9714
B(  4-C ,  8-O ) :  -0.1261 B(  5-C ,  6-C ) :   1.4587 B(  5-C , 15-H ) :   0.9645
B(  6-C , 16-H ) :   0.9799 B(  7-C ,  8-O ) :   1.9685 B(  7-C ,  9-C ) :   1.0379
B(  9-C , 17-H ) :   0.9702 B(  9-C , 18-H ) :   0.9446 B(  9-C , 19-H ) :   0.9442

FINAL SINGLE POINT ENERGY      -424.239909842558

DIPOLE MOMENT
-------------

Method             : SCF
Type of density    : Electron Density
Multiplicity       :   1
Irrep              :   0
Energy             :  -424.2512732340580897 Eh
Relativity type    :
Basis              : AO
                                X                 Y                 Z
Electronic contribution:      3.933680381      -2.888079091      -0.047560192
Nuclear contribution   :     -5.485805769       4.456225300       0.069306747
                        -----------------------------------------
Total Dipole Moment    :     -1.552125388       1.568146209       0.021746555
                        -----------------------------------------
Magnitude (a.u.)       :      2.206501454
Magnitude (Debye)      :      5.608480982

Rotational constants in cm-1:             0.120606             0.026330             0.021787
Rotational constants in MHz :          3615.664361           789.361911           653.155390

                             ****ORCA TERMINATED NORMALLY****
TOTAL RUN TIME: 0 days 0 hours 3 minutes 55 seconds 535 msec
