                         Program Version 6.0.0  -   RELEASE  -
|  1> ! pbe def2-sv(p) def2/J RI DEFGRID1 loosescf d4 GCP(DFT/SV(P)) printgap
|  2> %output
|  3>     printlevel normal
|  4> end
|  5> * xyz 0 1
|  6> C -3.3230927972 0.4532285844 -0.311622784
|  7> C -1.8593813565 0.5145100042 -0.0165648396
|  8> C -1.0919940751 1.5807465608 -0.2103780111
|  9> C 0.3678298994 1.4920300935 0.0957256539
| 10> C 0.9563860516 0.2399015374 -0.587522187
| 11> H 0.9422474809 0.4318843503 -1.6646212979
| 12> C 0.0890639704 -1.0063868497 -0.313833037
| 13> C -1.1642650997 -0.7126470851 0.5299343551
| 14> H -0.8447860929 -0.4979114946 1.5658620546
| 15> O -1.9491267829 -1.8887417351 0.5207780337
| 16> C 2.3899132909 0.0037233024 -0.1791470946
| 17> C 3.3507470455 -0.0991042678 -1.0846290908
| 18> C 2.6786377775 -0.1079585171 1.2883928926
| 19> H -3.5432504205 -0.4217452053 -0.9213742521
| 20> H -3.6373394832 1.347140156 -0.8429352892
| 21> H -3.8996416616 0.3796092422 0.610540243
| 22> H -1.4908466725 2.5041696502 -0.6012205305
| 23> H 0.9001123406 2.3777237274 -0.2507611145
| 24> H 0.506502878 1.4107986685 1.1766973685
| 25> H -0.2619874381 -1.4330577465 -1.2542077933
| 26> H 0.6666418168 -1.7823383067 0.18998213
| 27> H -2.7148873043 -1.7630373683 1.0963262809
| 28> H 4.3758221356 -0.2813104945 -0.8086415548
| 29> H 3.1536675348 -0.005742335 -2.139218818
| 30> H 3.6347508198 -0.5972868255 1.4529872071
| 31> H 2.7256571665 0.8841401182 1.7361890519
| 32> H 1.9006619078 -0.6716236115 1.7976443778
| 33> *
| 34>
| 35>                          ****END OF INPUT****

CARTESIAN COORDINATES (ANGSTROEM)
---------------------------------
  C     -3.323093    0.453229   -0.311623
  C     -1.859381    0.514510   -0.016565
  C     -1.091994    1.580747   -0.210378
  C      0.367830    1.492030    0.095726
  C      0.956386    0.239902   -0.587522
  H      0.942247    0.431884   -1.664621
  C      0.089064   -1.006387   -0.313833
  C     -1.164265   -0.712647    0.529934
  H     -0.844786   -0.497911    1.565862
  O     -1.949127   -1.888742    0.520778
  C      2.389913    0.003723   -0.179147
  C      3.350747   -0.099104   -1.084629
  C      2.678638   -0.107959    1.288393
  H     -3.543250   -0.421745   -0.921374
  H     -3.637339    1.347140   -0.842935
  H     -3.899642    0.379609    0.610540
  H     -1.490847    2.504170   -0.601221
  H      0.900112    2.377724   -0.250761
  H      0.506503    1.410799    1.176697
  H     -0.261987   -1.433058   -1.254208
  H      0.666642   -1.782338    0.189982
  H     -2.714887   -1.763037    1.096326
  H      4.375822   -0.281310   -0.808642
  H      3.153668   -0.005742   -2.139219
  H      3.634751   -0.597287    1.452987
  H      2.725657    0.884140    1.736189
  H      1.900662   -0.671624    1.797644

 Total Charge           Charge          ....    0
 Multiplicity           Mult            ....    1
 Number of Electrons    NEL             ....   84
 Basis Dimension        Dim             ....  186

ORBITAL ENERGIES
----------------

  NO   OCC          E(Eh)            E(eV)
   0   2.0000     -18.746241      -510.1112
   1   2.0000      -9.940146      -270.4851
   2   2.0000      -9.897819      -269.3334
   3   2.0000      -9.896232      -269.2902
   4   2.0000      -9.888529      -269.0806
   5   2.0000      -9.887916      -269.0639
   6   2.0000      -9.883261      -268.9372
   7   2.0000      -9.882606      -268.9194
   8   2.0000      -9.880513      -268.8624
   9   2.0000      -9.877495      -268.7803
  10   2.0000      -9.864415      -268.4244
  11   2.0000      -0.924417       -25.1547
  12   2.0000      -0.766111       -20.8469
  13   2.0000      -0.722341       -19.6559
  14   2.0000      -0.674817       -18.3627
  15   2.0000      -0.656714       -17.8701
  16   2.0000      -0.618328       -16.8256
  17   2.0000      -0.606925       -16.5153
  18   2.0000      -0.549881       -14.9630
  19   2.0000      -0.530095       -14.4246
  20   2.0000      -0.484129       -13.1738
  21   2.0000      -0.465966       -12.6796
  22   2.0000      -0.444347       -12.0913
  23   2.0000      -0.424512       -11.5516
  24   2.0000      -0.416594       -11.3361
  25   2.0000      -0.392945       -10.6926
  26   2.0000      -0.388635       -10.5753
  27   2.0000      -0.379671       -10.3314
  28   2.0000      -0.371609       -10.1120
  29   2.0000      -0.358987        -9.7685
  30   2.0000      -0.347764        -9.4631
  31   2.0000      -0.344311        -9.3692
  32   2.0000      -0.325654        -8.8615
  33   2.0000      -0.324856        -8.8398
  34   2.0000      -0.312085        -8.4923
  35   2.0000      -0.307140        -8.3577
  36   2.0000      -0.291999        -7.9457
  37   2.0000      -0.272175        -7.4063
  38   2.0000      -0.265832        -7.2336
  39   2.0000      -0.222326        -6.0498
  40   2.0000      -0.216084        -5.8799
  41   2.0000      -0.199990        -5.4420
  42   0.0000      -0.014726        -0.4007
  43   0.0000      -0.003729        -0.1015
  44   0.0000       0.021949         0.5973
  45   0.0000       0.037506         1.0206
  46   0.0000       0.052052         1.4164

MULLIKEN ATOMIC CHARGES
-----------------------
   0 C :   -0.236527
   1 C :   -0.073385
   2 C :   -0.213036
   3 C :   -0.016829
   4 C :   -0.145054
   5 H :    0.054801
   6 C :   -0.087110
   7 C :    0.068903
   8 H :    0.062532
   9 O :   -0.410102
  10 C :   -0.042385
  11 C :   -0.227349
  12 C :   -0.232580
  13 H :    0.118916
  14 H :    0.101745
  15 H :    0.101311
  16 H :    0.038711
  17 H :    0.083077
  18 H :    0.085544
  19 H :    0.085235
  20 H :    0.095476
  21 H :    0.298620
  22 H :    0.077067
  23 H :    0.082439
  24 H :    0.102185
  25 H :    0.121309
  26 H :    0.106488
Sum of atomic charges:   -0.0000000

LOEWDIN ATOMIC CHARGES
----------------------
   0 C :   -0.329712
   1 C :   -0.081689
   2 C :   -0.156891
   3 C :   -0.213588
   4 C :   -0.121075
   5 H :    0.123411
   6 C :   -0.207670
   7 C :   -0.042669
   8 H :    0.103176
   9 O :   -0.319609
  10 C :   -0.050480
  11 C :   -0.267946
  12 C :   -0.326729
  13 H :    0.130054
  14 H :    0.127511
  15 H :    0.122262
  16 H :    0.115535
  17 H :    0.124076
  18 H :    0.124127
  19 H :    0.128090
  20 H :    0.123510
  21 H :    0.283504
  22 H :    0.114702
  23 H :    0.116201
  24 H :    0.127429
  25 H :    0.132121
  26 H :    0.122348

  Mayer bond orders larger than 0.100000
B(  0-C ,  1-C ) :   1.1431 B(  0-C , 13-H ) :   0.9257 B(  0-C , 14-H ) :   0.9382
B(  0-C , 15-H ) :   0.9272 B(  1-C ,  2-C ) :   1.8727 B(  1-C ,  7-C ) :   0.9980
B(  2-C ,  3-C ) :   1.0894 B(  2-C , 16-H ) :   0.9476 B(  3-C ,  4-C ) :   1.1188
B(  3-C , 17-H ) :   0.9120 B(  3-C , 18-H ) :   0.8537 B(  4-C ,  5-H ) :   0.8764
B(  4-C ,  6-C ) :   1.0417 B(  4-C , 10-C ) :   1.0016 B(  6-C ,  7-C ) :   1.1072
B(  6-C , 19-H ) :   0.8974 B(  6-C , 20-H ) :   0.9060 B(  7-C ,  8-H ) :   0.8676
B(  7-C ,  9-O ) :   1.0991 B(  9-O , 21-H ) :   0.8433 B( 10-C , 11-C ) :   2.0409
B( 10-C , 12-C ) :   1.1094 B( 11-C , 22-H ) :   0.9073 B( 11-C , 23-H ) :   0.9094
B( 12-C , 24-H ) :   0.9353 B( 12-C , 25-H ) :   0.9240 B( 12-C , 26-H ) :   0.9265

Dispersion correction           -0.028472689
FINAL SINGLE POINT ENERGY      -464.784551929589

DIPOLE MOMENT
-------------

Method             : SCF
Type of density    : Electron Density
Multiplicity       :   1
Irrep              :   0
Energy             :  -464.8747354012210735 Eh
Relativity type    :
Basis              : AO
                                X                 Y                 Z
Electronic contribution:     -2.599928780      -1.379166353      -0.637685431
Nuclear contribution   :      2.235197621       1.737070560       1.080279589
                        -----------------------------------------
Total Dipole Moment    :     -0.364731159       0.357904207       0.442594158
                        -----------------------------------------
Magnitude (a.u.)       :      0.676027979
Magnitude (Debye)      :      1.718326566

Rotational constants in cm-1:             0.070508             0.022637             0.019868
Rotational constants in MHz :          2113.775918           678.650289           595.632831

                             ****ORCA TERMINATED NORMALLY****
TOTAL RUN TIME: 0 days 0 hours 0 minutes 12 seconds 282 msec
