                         Program Version 6.0.0  -   RELEASE  -
|  1> ! r2scan-3c def2/J RI DEFGRID2 scfconv6 printgap
|  2> %output
|  3>     printlevel normal
|  4> end
|  5> * xyz 0 1
|  6> C -0.6918622961 -1.2088455594 -2.08194e-05
|  7> C 0.6918711465 -1.2088690923 0.0001023115
|  8> C 1.3680753193 -3.95949e-05 0.0001087198
|  9> C 0.6918984015 1.208807712 2.15006e-05
| 10> C -0.6918276974 1.2088472572 5.02018e-05
| 11> C -1.3680677507 1.33331e-05 -5.6356e-06
| 12> Br -3.2819514504 5.5517e-06 -1.16016e-05
| 13> Br 3.2819364963 7.4357e-06 -2.38769e-05
| 14> H -1.2345886525 -2.140441453 -0.0001929549
| 15> H 1.2346206803 -2.1405085812 3.93245e-05
| 16> H 1.2346611619 2.140434409 6.31237e-05
| 17> H -1.2345458877 2.1405101828 -0.0001508139
| 18> *
| 19>
| 20>                          ****END OF INPUT****

CARTESIAN COORDINATES (ANGSTROEM)
---------------------------------
  C     -0.691862   -1.208846   -0.000021
  C      0.691871   -1.208869    0.000102
  C      1.368075   -0.000040    0.000109
  C      0.691898    1.208808    0.000022
  C     -0.691828    1.208847    0.000050
  C     -1.368068    0.000013   -0.000006
  Br    -3.281951    0.000006   -0.000012
  Br     3.281936    0.000007   -0.000024
  H     -1.234589   -2.140441   -0.000193
  H      1.234621   -2.140509    0.000039
  H      1.234661    2.140434    0.000063
  H     -1.234546    2.140510   -0.000151

 Total Charge           Charge          ....    0
 Multiplicity           Mult            ....    1
 Number of Electrons    NEL             ....  110
 Basis Dimension        Dim             ....  206

ORBITAL ENERGIES
----------------

  NO   OCC          E(Eh)            E(eV)
   0   2.0000    -482.238131    -13122.3667
   1   2.0000    -482.238128    -13122.3666
   2   2.0000     -62.309630     -1695.5312
   3   2.0000     -62.309627     -1695.5311
   4   2.0000     -56.089996     -1526.2864
   5   2.0000     -56.089992     -1526.2863
   6   2.0000     -56.087429     -1526.2165
   7   2.0000     -56.087425     -1526.2164
   8   2.0000     -56.087418     -1526.2162
   9   2.0000     -56.087417     -1526.2162
  10   2.0000     -10.112389      -275.1721
  11   2.0000     -10.112381      -275.1719
  12   2.0000     -10.068581      -273.9800
  13   2.0000     -10.068566      -273.9796
  14   2.0000     -10.068104      -273.9670
  15   2.0000     -10.068103      -273.9670
  16   2.0000      -8.641534      -235.1481
  17   2.0000      -8.641529      -235.1480
  18   2.0000      -6.449244      -175.4928
  19   2.0000      -6.449242      -175.4928
  20   2.0000      -6.435368      -175.1153
  21   2.0000      -6.435367      -175.1152
  22   2.0000      -6.434960      -175.1042
  23   2.0000      -6.434958      -175.1041
  24   2.0000      -2.546779       -69.3014
  25   2.0000      -2.546778       -69.3013
  26   2.0000      -2.543311       -69.2070
  27   2.0000      -2.543310       -69.2070
  28   2.0000      -2.543073       -69.2005
  29   2.0000      -2.543072       -69.2005
  30   2.0000      -2.532732       -68.9191
  31   2.0000      -2.532731       -68.9191
  32   2.0000      -2.532728       -68.9190
  33   2.0000      -2.532727       -68.9190
  34   2.0000      -0.871799       -23.7229
  35   2.0000      -0.805089       -21.9076
  36   2.0000      -0.755419       -20.5560
  37   2.0000      -0.752455       -20.4753
  38   2.0000      -0.688255       -18.7284
  39   2.0000      -0.613034       -16.6815
  40   2.0000      -0.581516       -15.8239
  41   2.0000      -0.498990       -13.5782
  42   2.0000      -0.464900       -12.6506
  43   2.0000      -0.449624       -12.2349
  44   2.0000      -0.425257       -11.5718
  45   2.0000      -0.400402       -10.8955
  46   2.0000      -0.391284       -10.6474
  47   2.0000      -0.353358        -9.6154
  48   2.0000      -0.344794        -9.3823
  49   2.0000      -0.327049        -8.8995
  50   2.0000      -0.278612        -7.5814
  51   2.0000      -0.278306        -7.5731
  52   2.0000      -0.273049        -7.4300
  53   2.0000      -0.269117        -7.3230
  54   2.0000      -0.230104        -6.2615
  55   0.0000      -0.062620        -1.7040
  56   0.0000      -0.060228        -1.6389
  57   0.0000      -0.039910        -1.0860
  58   0.0000      -0.029188        -0.7942
  59   0.0000       0.087101         2.3701

MULLIKEN ATOMIC CHARGES
-----------------------
   0 C :   -0.156074
   1 C :   -0.156059
   2 C :    0.104697
   3 C :   -0.156070
   4 C :   -0.156074
   5 C :    0.104690
   6 Br:   -0.126613
   7 Br:   -0.126613
   8 H :    0.167025
   9 H :    0.167030
  10 H :    0.167030
  11 H :    0.167031
Sum of atomic charges:    0.0000000

LOEWDIN ATOMIC CHARGES
----------------------
   0 C :   -0.164556
   1 C :   -0.164561
   2 C :   -0.226440
   3 C :   -0.164567
   4 C :   -0.164560
   5 C :   -0.226431
   6 Br:    0.191768
   7 Br:    0.191777
   8 H :    0.181885
   9 H :    0.181895
  10 H :    0.181894
  11 H :    0.181895

  Mayer bond orders larger than 0.100000
B(  0-C ,  1-C ) :   1.3995 B(  0-C ,  5-C ) :   1.3987 B(  0-C ,  8-H ) :   0.9401
B(  1-C ,  2-C ) :   1.3987 B(  1-C ,  9-H ) :   0.9401 B(  2-C ,  3-C ) :   1.3987
B(  2-C ,  7-Br) :   0.9905 B(  3-C ,  4-C ) :   1.3995 B(  3-C , 10-H ) :   0.9401
B(  4-C ,  5-C ) :   1.3987 B(  4-C , 11-H ) :   0.9401 B(  5-C ,  6-Br) :   0.9905

Dispersion correction           -0.004921167
FINAL SINGLE POINT ENERGY     -5379.259954048150

DIPOLE MOMENT
-------------

Method             : SCF
Type of density    : Electron Density
Multiplicity       :   1
Irrep              :   0
Energy             : -5379.2581279087680741 Eh
Relativity type    :
Basis              : AO
                                X                 Y                 Z
Electronic contribution:     -0.000270819       0.000123605      -0.000202593
Nuclear contribution   :      0.000277049      -0.000125698       0.000103028
                        -----------------------------------------
Total Dipole Moment    :      0.000006230      -0.000002094      -0.000099565
                        -----------------------------------------
Magnitude (a.u.)       :      0.000099782
Magnitude (Debye)      :      0.000253626

Rotational constants in cm-1:             0.190096             0.009390             0.008948
Rotational constants in MHz :          5698.923299           281.496056           268.246144

                             ****ORCA TERMINATED NORMALLY****
TOTAL RUN TIME: 0 days 0 hours 0 minutes 19 seconds 24 msec
