                         Program Version 6.0.0  -   RELEASE  -
|  1> ! r2scan-3c def2/J RI DEFGRID2 scfconv6 printgap
|  2> %output
|  3>     printlevel normal
|  4> end
|  5> %cpcm
|  6>     smd true
|  7>     smdsolvent "water"
|  8> end
|  9> * xyz 0 1
| 10> C -0.6918622961 -1.2088455594 -2.08194e-05
| 11> C 0.6918711465 -1.2088690923 0.0001023115
| 12> C 1.3680753193 -3.95949e-05 0.0001087198
| 13> C 0.6918984015 1.208807712 2.15006e-05
| 14> C -0.6918276974 1.2088472572 5.02018e-05
| 15> C -1.3680677507 1.33331e-05 -5.6356e-06
| 16> Br -3.2819514504 5.5517e-06 -1.16016e-05
| 17> Br 3.2819364963 7.4357e-06 -2.38769e-05
| 18> H -1.2345886525 -2.140441453 -0.0001929549
| 19> H 1.2346206803 -2.1405085812 3.93245e-05
| 20> H 1.2346611619 2.140434409 6.31237e-05
| 21> H -1.2345458877 2.1405101828 -0.0001508139
| 22> *
| 23>
| 24>                          ****END OF INPUT****

CARTESIAN COORDINATES (ANGSTROEM)
---------------------------------
  C     -0.691862   -1.208846   -0.000021
  C      0.691871   -1.208869    0.000102
  C      1.368075   -0.000040    0.000109
  C      0.691898    1.208808    0.000022
  C     -0.691828    1.208847    0.000050
  C     -1.368068    0.000013   -0.000006
  Br    -3.281951    0.000006   -0.000012
  Br     3.281936    0.000007   -0.000024
  H     -1.234589   -2.140441   -0.000193
  H      1.234621   -2.140509    0.000039
  H      1.234661    2.140434    0.000063
  H     -1.234546    2.140510   -0.000151

 Total Charge           Charge          ....    0
 Multiplicity           Mult            ....    1
 Number of Electrons    NEL             ....  110
 Basis Dimension        Dim             ....  206

ORBITAL ENERGIES
----------------

  NO   OCC          E(Eh)            E(eV)
   0   2.0000    -482.235006    -13122.2816
   1   2.0000    -482.235004    -13122.2816
   2   2.0000     -62.306552     -1695.4475
   3   2.0000     -62.306549     -1695.4474
   4   2.0000     -56.086885     -1526.2017
   5   2.0000     -56.086881     -1526.2016
   6   2.0000     -56.084365     -1526.1332
   7   2.0000     -56.084361     -1526.1331
   8   2.0000     -56.084361     -1526.1331
   9   2.0000     -56.084359     -1526.1330
  10   2.0000     -10.105105      -274.9739
  11   2.0000     -10.105096      -274.9736
  12   2.0000     -10.058437      -273.7040
  13   2.0000     -10.058421      -273.7035
  14   2.0000     -10.057960      -273.6910
  15   2.0000     -10.057959      -273.6910
  16   2.0000      -8.638481      -235.0650
  17   2.0000      -8.638476      -235.0649
  18   2.0000      -6.446018      -175.4051
  19   2.0000      -6.446016      -175.4050
  20   2.0000      -6.432442      -175.0357
  21   2.0000      -6.432441      -175.0356
  22   2.0000      -6.431960      -175.0225
  23   2.0000      -6.431959      -175.0225
  24   2.0000      -2.543609       -69.2151
  25   2.0000      -2.543608       -69.2151
  26   2.0000      -2.540232       -69.1232
  27   2.0000      -2.540231       -69.1232
  28   2.0000      -2.539935       -69.1151
  29   2.0000      -2.539933       -69.1151
  30   2.0000      -2.529813       -68.8397
  31   2.0000      -2.529812       -68.8397
  32   2.0000      -2.529809       -68.8396
  33   2.0000      -2.529807       -68.8396
  34   2.0000      -0.864017       -23.5111
  35   2.0000      -0.799999       -21.7691
  36   2.0000      -0.751371       -20.4458
  37   2.0000      -0.742267       -20.1981
  38   2.0000      -0.682602       -18.5745
  39   2.0000      -0.603100       -16.4112
  40   2.0000      -0.571013       -15.5381
  41   2.0000      -0.490418       -13.3450
  42   2.0000      -0.456043       -12.4096
  43   2.0000      -0.436465       -11.8768
  44   2.0000      -0.412359       -11.2209
  45   2.0000      -0.395597       -10.7647
  46   2.0000      -0.384850       -10.4723
  47   2.0000      -0.340647        -9.2695
  48   2.0000      -0.337768        -9.1911
  49   2.0000      -0.323335        -8.7984
  50   2.0000      -0.276048        -7.5117
  51   2.0000      -0.275233        -7.4895
  52   2.0000      -0.269966        -7.3462
  53   2.0000      -0.260525        -7.0892
  54   2.0000      -0.225889        -6.1468
  55   0.0000      -0.054037        -1.4704
  56   0.0000      -0.053465        -1.4549
  57   0.0000      -0.034062        -0.9269
  58   0.0000      -0.025295        -0.6883
  59   0.0000       0.095265         2.5923

MULLIKEN ATOMIC CHARGES
-----------------------
   0 C :   -0.180083
   1 C :   -0.180099
   2 C :    0.105806
   3 C :   -0.180104
   4 C :   -0.180094
   5 C :    0.105773
   6 Br:   -0.143572
   7 Br:   -0.143572
   8 H :    0.198981
   9 H :    0.198988
  10 H :    0.198985
  11 H :    0.198989
Sum of atomic charges:    0.0000000

LOEWDIN ATOMIC CHARGES
----------------------
   0 C :   -0.164333
   1 C :   -0.164339
   2 C :   -0.234315
   3 C :   -0.164346
   4 C :   -0.164338
   5 C :   -0.234307
   6 Br:    0.177794
   7 Br:    0.177803
   8 H :    0.192587
   9 H :    0.192599
  10 H :    0.192597
  11 H :    0.192599

  Mayer bond orders larger than 0.100000
B(  0-C ,  1-C ) :   1.4332 B(  0-C ,  5-C ) :   1.3617 B(  0-C ,  8-H ) :   0.9366
B(  1-C ,  2-C ) :   1.3617 B(  1-C ,  9-H ) :   0.9366 B(  2-C ,  3-C ) :   1.3617
B(  2-C ,  7-Br) :   0.9860 B(  3-C ,  4-C ) :   1.4332 B(  3-C , 10-H ) :   0.9366
B(  4-C ,  5-C ) :   1.3617 B(  4-C , 11-H ) :   0.9366 B(  5-C ,  6-Br) :   0.9860

Dispersion correction           -0.004921167
FINAL SINGLE POINT ENERGY     -5379.263794507194

DIPOLE MOMENT
-------------

Method             : SCF
Type of density    : Electron Density
Multiplicity       :   1
Irrep              :   0
Energy             : -5379.2619683678121874 Eh
Relativity type    :
Basis              : AO
                                X                 Y                 Z
Electronic contribution:     -0.000262535       0.000124047      -0.000236351
Nuclear contribution   :      0.000277049      -0.000125698       0.000103028
                        -----------------------------------------
Total Dipole Moment    :      0.000014515      -0.000001651      -0.000133323
                        -----------------------------------------
Magnitude (a.u.)       :      0.000134121
Magnitude (Debye)      :      0.000340907

Rotational constants in cm-1:             0.190096             0.009390             0.008948
Rotational constants in MHz :          5698.923299           281.496056           268.246144

                             ****ORCA TERMINATED NORMALLY****
TOTAL RUN TIME: 0 days 0 hours 0 minutes 25 seconds 109 msec
