                         Program Version 6.0.0  -   RELEASE  -
|  1> ! pbe def2-sv(p) def2/J RI DEFGRID1 loosescf d4 GCP(DFT/SV(P)) printgap
|  2> %output
|  3>     printlevel normal
|  4> end
|  5> * xyz 0 1
|  6> C -2.0591003832 -1.2130651984 -0.2602532175
|  7> C -1.2739208602 -0.3549309362 0.7551097025
|  8> H -1.8989129783 -0.2277328207 1.645127414
|  9> C -0.9433029272 1.0479402859 0.1883744071
| 10> H -1.2677203034 1.0887806739 -0.8618028998
| 11> C 0.5740720287 1.3031519169 0.2188284889
| 12> H 0.8965226042 1.4250920176 1.2576470422
| 13> C 1.2855646015 0.0927257922 -0.4040751748
| 14> H 0.8828820324 -0.064418742 -1.4154273629
| 15> C 0.9893579041 -1.1585726939 0.4474761616
| 16> H 1.8252241836 -1.3036602817 1.1467315225
| 17> O -0.1299173691 -1.0249924722 1.279541715
| 18> O 0.8715016534 -2.2550342253 -0.4182325529
| 19> O 2.6643116378 0.3507333257 -0.4544712774
| 20> O 0.915243241 2.5024160046 -0.4137307969
| 21> O -1.5587195825 2.0691304949 0.9367972213
| 22> O -1.4835951423 -1.2641375096 -1.5421201714
| 23> H -3.0472761722 -0.7693159344 -0.3960690893
| 24> H -2.179170475 -2.2194860085 0.1566131567
| 25> H 0.8611569828 -3.0827597455 0.0870966949
| 26> H 3.1001786631 -0.2990074322 -1.0248644512
| 27> H 0.6865358838 2.4557014862 -1.3544337221
| 28> H -2.4925459617 2.1440882816 0.6965987499
| 29> H -0.6576448293 -1.7799858889 -1.4858210934
| 30> *
| 31>
| 32>                          ****END OF INPUT****

CARTESIAN COORDINATES (ANGSTROEM)
---------------------------------
  C     -2.059100   -1.213065   -0.260253
  C     -1.273921   -0.354931    0.755110
  H     -1.898913   -0.227733    1.645127
  C     -0.943303    1.047940    0.188374
  H     -1.267720    1.088781   -0.861803
  C      0.574072    1.303152    0.218828
  H      0.896523    1.425092    1.257647
  C      1.285565    0.092726   -0.404075
  H      0.882882   -0.064419   -1.415427
  C      0.989358   -1.158573    0.447476
  H      1.825224   -1.303660    1.146732
  O     -0.129917   -1.024992    1.279542
  O      0.871502   -2.255034   -0.418233
  O      2.664312    0.350733   -0.454471
  O      0.915243    2.502416   -0.413731
  O     -1.558720    2.069130    0.936797
  O     -1.483595   -1.264138   -1.542120
  H     -3.047276   -0.769316   -0.396069
  H     -2.179170   -2.219486    0.156613
  H      0.861157   -3.082760    0.087097
  H      3.100179   -0.299007   -1.024864
  H      0.686536    2.455701   -1.354434
  H     -2.492546    2.144088    0.696599
  H     -0.657645   -1.779986   -1.485821

 Total Charge           Charge          ....    0
 Multiplicity           Mult            ....    1
 Number of Electrons    NEL             ....   96
 Basis Dimension        Dim             ....  192

ORBITAL ENERGIES
----------------

  NO   OCC          E(Eh)            E(eV)
   0   2.0000     -18.791585      -511.3450
   1   2.0000     -18.770311      -510.7661
   2   2.0000     -18.754777      -510.3434
   3   2.0000     -18.747316      -510.1404
   4   2.0000     -18.744124      -510.0536
   5   2.0000     -18.739201      -509.9196
   6   2.0000      -9.993345      -271.9327
   7   2.0000      -9.945492      -270.6306
   8   2.0000      -9.941165      -270.5129
   9   2.0000      -9.939491      -270.4673
  10   2.0000      -9.937587      -270.4155
  11   2.0000      -9.933782      -270.3120
  12   2.0000      -0.992169       -26.9983
  13   2.0000      -0.940042       -25.5798
  14   2.0000      -0.933283       -25.3959
  15   2.0000      -0.922684       -25.1075
  16   2.0000      -0.917807       -24.9748
  17   2.0000      -0.909714       -24.7546
  18   2.0000      -0.700726       -19.0677
  19   2.0000      -0.695283       -18.9196
  20   2.0000      -0.623133       -16.9563
  21   2.0000      -0.584192       -15.8967
  22   2.0000      -0.573258       -15.5991
  23   2.0000      -0.527447       -14.3526
  24   2.0000      -0.507811       -13.8182
  25   2.0000      -0.485797       -13.2192
  26   2.0000      -0.471325       -12.8254
  27   2.0000      -0.462149       -12.5757
  28   2.0000      -0.443433       -12.0664
  29   2.0000      -0.435213       -11.8428
  30   2.0000      -0.423296       -11.5185
  31   2.0000      -0.405365       -11.0305
  32   2.0000      -0.377353       -10.2683
  33   2.0000      -0.369847       -10.0640
  34   2.0000      -0.358490        -9.7550
  35   2.0000      -0.354535        -9.6474
  36   2.0000      -0.345035        -9.3889
  37   2.0000      -0.308091        -8.3836
  38   2.0000      -0.294531        -8.0146
  39   2.0000      -0.288736        -7.8569
  40   2.0000      -0.281479        -7.6594
  41   2.0000      -0.274871        -7.4796
  42   2.0000      -0.263548        -7.1715
  43   2.0000      -0.248524        -6.7627
  44   2.0000      -0.228831        -6.2268
  45   2.0000      -0.224597        -6.1116
  46   2.0000      -0.212786        -5.7902
  47   2.0000      -0.196594        -5.3496
  48   0.0000       0.008618         0.2345
  49   0.0000       0.016981         0.4621
  50   0.0000       0.027038         0.7357
  51   0.0000       0.045117         1.2277
  52   0.0000       0.054212         1.4752

MULLIKEN ATOMIC CHARGES
-----------------------
   0 C :    0.019000
   1 C :    0.047815
   2 H :    0.066245
   3 C :    0.024366
   4 H :    0.057041
   5 C :    0.110275
   6 H :    0.075332
   7 C :   -0.014965
   8 H :    0.046788
   9 C :    0.180537
  10 H :    0.073313
  11 O :   -0.306293
  12 O :   -0.409302
  13 O :   -0.394661
  14 O :   -0.398469
  15 O :   -0.397715
  16 O :   -0.445487
  17 H :    0.080241
  18 H :    0.073176
  19 H :    0.312445
  20 H :    0.303575
  21 H :    0.290316
  22 H :    0.300287
  23 H :    0.306142
Sum of atomic charges:    0.0000000

LOEWDIN ATOMIC CHARGES
----------------------
   0 C :   -0.137263
   1 C :   -0.079267
   2 H :    0.121428
   3 C :   -0.078939
   4 H :    0.102148
   5 C :   -0.060090
   6 H :    0.127287
   7 C :   -0.093646
   8 H :    0.100685
   9 C :   -0.014795
  10 H :    0.107370
  11 O :   -0.143451
  12 O :   -0.308231
  13 O :   -0.308557
  14 O :   -0.296570
  15 O :   -0.313603
  16 O :   -0.349102
  17 H :    0.112184
  18 H :    0.098764
  19 H :    0.291299
  20 H :    0.289277
  21 H :    0.281141
  22 H :    0.286077
  23 H :    0.265854

  Mayer bond orders larger than 0.100000
B(  0-C ,  1-C ) :   1.0155 B(  0-C , 16-O ) :   1.0953 B(  0-C , 17-H ) :   0.9219
B(  0-C , 18-H ) :   0.9134 B(  1-C ,  2-H ) :   0.8816 B(  1-C ,  3-C ) :   0.9681
B(  1-C , 11-O ) :   1.0136 B(  3-C ,  4-H ) :   0.8780 B(  3-C ,  5-C ) :   1.0032
B(  3-C , 15-O ) :   1.1032 B(  5-C ,  6-H ) :   0.8619 B(  5-C ,  7-C ) :   0.9899
B(  5-C , 14-O ) :   1.0738 B(  7-C ,  8-H ) :   0.8706 B(  7-C ,  9-C ) :   0.9884
B(  7-C , 13-O ) :   1.0994 B(  9-C , 10-H ) :   0.8890 B(  9-C , 11-O ) :   1.0861
B(  9-C , 12-O ) :   1.0544 B( 12-O , 19-H ) :   0.8341 B( 12-O , 23-H ) :   0.1111
B( 13-O , 20-H ) :   0.8485 B( 14-O , 21-H ) :   0.8503 B( 15-O , 22-H ) :   0.8505
B( 16-O , 23-H ) :   0.7875

Dispersion correction           -0.025243428
FINAL SINGLE POINT ENERGY      -685.691029074308

DIPOLE MOMENT
-------------

Method             : SCF
Type of density    : Electron Density
Multiplicity       :   1
Irrep              :   0
Energy             :  -685.8218613799807599 Eh
Relativity type    :
Basis              : AO
                                X                 Y                 Z
Electronic contribution:      2.765439106       1.127179474       1.063161299
Nuclear contribution   :     -3.068357293      -2.464323002      -1.461923700
                        -----------------------------------------
Total Dipole Moment    :     -0.302918187      -1.337143528      -0.398762402
                        -----------------------------------------
Magnitude (a.u.)       :      1.427838820
Magnitude (Debye)      :      3.629277857

Rotational constants in cm-1:             0.035532             0.032731             0.021651
Rotational constants in MHz :          1065.225567           981.261872           649.087040

                             ****ORCA TERMINATED NORMALLY****
TOTAL RUN TIME: 0 days 0 hours 0 minutes 11 seconds 988 msec
