                         Program Version 6.0.0  -   RELEASE  -
|  1> ! pbe def2-sv(p) def2/J RI DEFGRID1 loosescf d4 GCP(DFT/SV(P)) printgap
|  2> %output
|  3>     printlevel normal
|  4> end
|  5> * xyz 0 1
|  6> C -2.7364182537 -0.1785634385 -0.6881518614
|  7> C -1.9311075974 0.1997788363 0.5567871215
|  8> C -0.4579605178 0.0790347555 0.2965236325
|  9> C 0.1601069843 -1.1687592838 0.2332908518
| 10> C 1.5144709971 -1.2351939536 -0.0376453678
| 11> C 2.2135783647 -0.053454905 -0.2365345392
| 12> C 1.5126914729 1.1376827244 -0.1498517162
| 13> N 0.2162356183 1.2082799862 0.1085472283
| 14> H -2.5256418874 -1.2034215689 -0.9850159945
| 15> H -2.4797806354 0.4790728709 -1.5149694784
| 16> H -3.8002275495 -0.085850002 -0.4870412394
| 17> H -2.208863129 -0.4586900723 1.381905042
| 18> H -2.1511071028 1.2299457252 0.8349486746
| 19> H -0.4169707982 -2.0653414015 0.39930473
| 20> H 2.0187776512 -2.1888219697 -0.0911924658
| 21> H 3.2704138362 -0.0559869916 -0.4495478577
| 22> H 2.0069487639 2.0900420398 -0.2920073622
| 23> *
| 24>
| 25>                          ****END OF INPUT****

CARTESIAN COORDINATES (ANGSTROEM)
---------------------------------
  C     -2.736418   -0.178563   -0.688152
  C     -1.931108    0.199779    0.556787
  C     -0.457961    0.079035    0.296524
  C      0.160107   -1.168759    0.233291
  C      1.514471   -1.235194   -0.037645
  C      2.213578   -0.053455   -0.236535
  C      1.512691    1.137683   -0.149852
  N      0.216236    1.208280    0.108547
  H     -2.525642   -1.203422   -0.985016
  H     -2.479781    0.479073   -1.514969
  H     -3.800228   -0.085850   -0.487041
  H     -2.208863   -0.458690    1.381905
  H     -2.151107    1.229946    0.834949
  H     -0.416971   -2.065341    0.399305
  H      2.018778   -2.188822   -0.091192
  H      3.270414   -0.055987   -0.449548
  H      2.006949    2.090042   -0.292007

 Total Charge           Charge          ....    0
 Multiplicity           Mult            ....    1
 Number of Electrons    NEL             ....   58
 Basis Dimension        Dim             ....  130

ORBITAL ENERGIES
----------------

  NO   OCC          E(Eh)            E(eV)
   0   2.0000     -13.975880      -380.3030
   1   2.0000      -9.929598      -270.1981
   2   2.0000      -9.918362      -269.8924
   3   2.0000      -9.908795      -269.6320
   4   2.0000      -9.899245      -269.3721
   5   2.0000      -9.897870      -269.3347
   6   2.0000      -9.886348      -269.0212
   7   2.0000      -9.880008      -268.8487
   8   2.0000      -0.856928       -23.3182
   9   2.0000      -0.723642       -19.6913
  10   2.0000      -0.717462       -19.5231
  11   2.0000      -0.659008       -17.9325
  12   2.0000      -0.578889       -15.7524
  13   2.0000      -0.564818       -15.3695
  14   2.0000      -0.527613       -14.3571
  15   2.0000      -0.464060       -12.6277
  16   2.0000      -0.441880       -12.0242
  17   2.0000      -0.413132       -11.2419
  18   2.0000      -0.390678       -10.6309
  19   2.0000      -0.386608       -10.5202
  20   2.0000      -0.367155        -9.9908
  21   2.0000      -0.355662        -9.6780
  22   2.0000      -0.340694        -9.2707
  23   2.0000      -0.324130        -8.8200
  24   2.0000      -0.302722        -8.2375
  25   2.0000      -0.300480        -8.1765
  26   2.0000      -0.260095        -7.0776
  27   2.0000      -0.230797        -6.2803
  28   2.0000      -0.201052        -5.4709
  29   0.0000      -0.051788        -1.4092
  30   0.0000      -0.042905        -1.1675
  31   0.0000       0.040900         1.1130
  32   0.0000       0.058071         1.5802
  33   0.0000       0.079195         2.1550

MULLIKEN ATOMIC CHARGES
-----------------------
   0 C :   -0.291195
   1 C :   -0.089983
   2 C :   -0.066540
   3 C :   -0.094717
   4 C :   -0.006442
   5 C :   -0.076489
   6 C :   -0.053786
   7 N :   -0.061942
   8 H :    0.100852
   9 H :    0.111812
  10 H :    0.108698
  11 H :    0.086673
  12 H :    0.089085
  13 H :    0.050150
  14 H :    0.064163
  15 H :    0.062140
  16 H :    0.067520
Sum of atomic charges:   -0.0000000

LOEWDIN ATOMIC CHARGES
----------------------
   0 C :   -0.332474
   1 C :   -0.227439
   2 C :   -0.004663
   3 C :   -0.137738
   4 C :   -0.097947
   5 C :   -0.149236
   6 C :   -0.078938
   7 N :   -0.076383
   8 H :    0.116019
   9 H :    0.123651
  10 H :    0.120592
  11 H :    0.123113
  12 H :    0.127564
  13 H :    0.125506
  14 H :    0.127054
  15 H :    0.127583
  16 H :    0.113736

  Mayer bond orders larger than 0.100000
B(  0-C ,  1-C ) :   1.1453 B(  0-C ,  8-H ) :   0.9558 B(  0-C ,  9-H ) :   0.9512
B(  0-C , 10-H ) :   0.9509 B(  1-C ,  2-C ) :   1.0638 B(  1-C , 11-H ) :   0.9099
B(  1-C , 12-H ) :   0.9031 B(  2-C ,  3-C ) :   1.3635 B(  2-C ,  7-N ) :   1.5561
B(  3-C ,  4-C ) :   1.4205 B(  3-C , 13-H ) :   0.9448 B(  4-C ,  5-C ) :   1.4051
B(  4-C , 14-H ) :   0.9569 B(  5-C ,  6-C ) :   1.3837 B(  5-C , 15-H ) :   0.9490
B(  6-C ,  7-N ) :   1.5321 B(  6-C , 16-H ) :   0.9520

Dispersion correction           -0.016217878
FINAL SINGLE POINT ENERGY      -326.179659173983

DIPOLE MOMENT
-------------

Method             : SCF
Type of density    : Electron Density
Multiplicity       :   1
Irrep              :   0
Energy             :  -326.2288662379589255 Eh
Relativity type    :
Basis              : AO
                                X                 Y                 Z
Electronic contribution:      6.075433736       1.456608552       1.089651535
Nuclear contribution   :     -5.896564743      -2.112745909      -1.128599445
                        -----------------------------------------
Total Dipole Moment    :      0.178868993      -0.656137356      -0.038947910
                        -----------------------------------------
Magnitude (a.u.)       :      0.681195483
Magnitude (Debye)      :      1.731461317

Rotational constants in cm-1:             0.156768             0.051576             0.042499
Rotational constants in MHz :          4699.790273          1546.204981          1274.087577

                             ****ORCA TERMINATED NORMALLY****
TOTAL RUN TIME: 0 days 0 hours 0 minutes 8 seconds 252 msec
