                         Program Version 6.0.0  -   RELEASE  -
|  1> ! r2scan-3c def2/J RI DEFGRID2 scfconv6 printgap
|  2> %output
|  3>     printlevel normal
|  4> end
|  5> * xyz 0 1
|  6> C -1.9809144621 -0.9482855999 0.5785558366
|  7> C -1.4420201818 -0.0133532807 -0.5027820532
|  8> C -0.0225858259 0.4178754436 -0.2336452328
|  9> O 0.3662707201 1.5675045615 -0.2897188919
| 10> O 0.7613019855 -0.6111678768 0.0547404676
| 11> C 2.1454267629 -0.3800483183 0.3306239539
| 12> H -2.9964529125 -1.2436743392 0.3325108265
| 13> H -1.3618014767 -1.8375980255 0.6514943988
| 14> H -1.98903981 -0.4484137622 1.5438651739
| 15> H -2.0523618282 0.8858342041 -0.5863695151
| 16> H -1.4462005288 -0.528614801 -1.4654323134
| 17> H 2.3887799535 0.6687203325 0.1571517874
| 18> H 2.7201149984 -1.0234586669 -0.332296642
| 19> H 2.3306593161 -0.6448247415 1.3704346963
| 20> *
| 21>
| 22>                          ****END OF INPUT****

CARTESIAN COORDINATES (ANGSTROEM)
---------------------------------
  C     -1.980914   -0.948286    0.578556
  C     -1.442020   -0.013353   -0.502782
  C     -0.022586    0.417875   -0.233645
  O      0.366271    1.567505   -0.289719
  O      0.761302   -0.611168    0.054740
  C      2.145427   -0.380048    0.330624
  H     -2.996453   -1.243674    0.332511
  H     -1.361801   -1.837598    0.651494
  H     -1.989040   -0.448414    1.543865
  H     -2.052362    0.885834   -0.586370
  H     -1.446201   -0.528615   -1.465432
  H      2.388780    0.668720    0.157152
  H      2.720115   -1.023459   -0.332297
  H      2.330659   -0.644825    1.370435

 Total Charge           Charge          ....    0
 Multiplicity           Mult            ....    1
 Number of Electrons    NEL             ....   48
 Basis Dimension        Dim             ....  164

ORBITAL ENERGIES
----------------

  NO   OCC          E(Eh)            E(eV)
   0   2.0000     -19.000372      -517.0264
   1   2.0000     -18.928067      -515.0589
   2   2.0000     -10.153747      -276.2975
   3   2.0000     -10.086220      -274.4600
   4   2.0000     -10.045410      -273.3495
   5   2.0000     -10.029301      -272.9112
   6   2.0000      -1.074083       -29.2273
   7   2.0000      -0.975901       -26.5556
   8   2.0000      -0.762346       -20.7445
   9   2.0000      -0.694989       -18.9116
  10   2.0000      -0.615306       -16.7433
  11   2.0000      -0.535496       -14.5716
  12   2.0000      -0.470720       -12.8089
  13   2.0000      -0.457005       -12.4357
  14   2.0000      -0.442050       -12.0288
  15   2.0000      -0.415362       -11.3026
  16   2.0000      -0.395039       -10.7495
  17   2.0000      -0.378462       -10.2985
  18   2.0000      -0.352535        -9.5930
  19   2.0000      -0.336909        -9.1678
  20   2.0000      -0.325564        -8.8591
  21   2.0000      -0.314000        -8.5444
  22   2.0000      -0.272740        -7.4216
  23   2.0000      -0.235101        -6.3974
  24   0.0000      -0.014703        -0.4001
  25   0.0000       0.064918         1.7665
  26   0.0000       0.096166         2.6168
  27   0.0000       0.122090         3.3222
  28   0.0000       0.125274         3.4089

MULLIKEN ATOMIC CHARGES
-----------------------
   0 C :   -0.462171
   1 C :   -0.294956
   2 C :    0.403131
   3 O :   -0.433728
   4 O :   -0.188772
   5 C :   -0.298885
   6 H :    0.148352
   7 H :    0.162736
   8 H :    0.149315
   9 H :    0.168241
  10 H :    0.160158
  11 H :    0.190766
  12 H :    0.147577
  13 H :    0.148235
Sum of atomic charges:    0.0000000

LOEWDIN ATOMIC CHARGES
----------------------
   0 C :   -0.397108
   1 C :   -0.234888
   2 C :    0.357722
   3 O :   -0.438593
   4 O :   -0.607769
   5 C :   -0.044743
   6 H :    0.151806
   7 H :    0.163724
   8 H :    0.155830
   9 H :    0.175736
  10 H :    0.177879
  11 H :    0.193802
  12 H :    0.173751
  13 H :    0.172852

  Mayer bond orders larger than 0.100000
B(  0-C ,  1-C ) :   0.8915 B(  0-C ,  6-H ) :   0.9705 B(  0-C ,  7-H ) :   0.9735
B(  0-C ,  8-H ) :   0.9753 B(  1-C ,  2-C ) :   1.0016 B(  1-C ,  9-H ) :   0.9833
B(  1-C , 10-H ) :   0.9395 B(  2-C ,  3-O ) :   1.8593 B(  2-C ,  4-O ) :   1.0485
B(  4-O ,  5-C ) :   0.8392 B(  5-C , 11-H ) :   0.9681 B(  5-C , 12-H ) :   0.9661
B(  5-C , 13-H ) :   0.9630

Dispersion correction           -0.003006450
FINAL SINGLE POINT ENERGY      -307.629768244890

DIPOLE MOMENT
-------------

Method             : SCF
Type of density    : Electron Density
Multiplicity       :   1
Irrep              :   0
Energy             :  -307.6362932681869893 Eh
Relativity type    :
Basis              : AO
                                X                 Y                 Z
Electronic contribution:      2.261526816       3.048943888      -1.442550610
Nuclear contribution   :     -2.240779444      -3.899881295       1.564533372
                        -----------------------------------------
Total Dipole Moment    :      0.020747372      -0.850937407       0.121982762
                        -----------------------------------------
Magnitude (a.u.)       :      0.859886456
Magnitude (Debye)      :      2.185657675

Rotational constants in cm-1:             0.202813             0.087650             0.066355
Rotational constants in MHz :          6080.184526          2627.682246          1989.286243

                             ****ORCA TERMINATED NORMALLY****
TOTAL RUN TIME: 0 days 0 hours 0 minutes 16 seconds 752 msec
