                         Program Version 6.0.0  -   RELEASE  -
|  1> ! r2scan-3c def2/J RI DEFGRID2 scfconv6 printgap
|  2> %output
|  3>     printlevel normal
|  4> end
|  5> %cpcm
|  6>     smd true
|  7>     smdsolvent "water"
|  8> end
|  9> * xyz 0 1
| 10> C -1.9809144621 -0.9482855999 0.5785558366
| 11> C -1.4420201818 -0.0133532807 -0.5027820532
| 12> C -0.0225858259 0.4178754436 -0.2336452328
| 13> O 0.3662707201 1.5675045615 -0.2897188919
| 14> O 0.7613019855 -0.6111678768 0.0547404676
| 15> C 2.1454267629 -0.3800483183 0.3306239539
| 16> H -2.9964529125 -1.2436743392 0.3325108265
| 17> H -1.3618014767 -1.8375980255 0.6514943988
| 18> H -1.98903981 -0.4484137622 1.5438651739
| 19> H -2.0523618282 0.8858342041 -0.5863695151
| 20> H -1.4462005288 -0.528614801 -1.4654323134
| 21> H 2.3887799535 0.6687203325 0.1571517874
| 22> H 2.7201149984 -1.0234586669 -0.332296642
| 23> H 2.3306593161 -0.6448247415 1.3704346963
| 24> *
| 25>
| 26>                          ****END OF INPUT****

CARTESIAN COORDINATES (ANGSTROEM)
---------------------------------
  C     -1.980914   -0.948286    0.578556
  C     -1.442020   -0.013353   -0.502782
  C     -0.022586    0.417875   -0.233645
  O      0.366271    1.567505   -0.289719
  O      0.761302   -0.611168    0.054740
  C      2.145427   -0.380048    0.330624
  H     -2.996453   -1.243674    0.332511
  H     -1.361801   -1.837598    0.651494
  H     -1.989040   -0.448414    1.543865
  H     -2.052362    0.885834   -0.586370
  H     -1.446201   -0.528615   -1.465432
  H      2.388780    0.668720    0.157152
  H      2.720115   -1.023459   -0.332297
  H      2.330659   -0.644825    1.370435

 Total Charge           Charge          ....    0
 Multiplicity           Mult            ....    1
 Number of Electrons    NEL             ....   48
 Basis Dimension        Dim             ....  164

ORBITAL ENERGIES
----------------

  NO   OCC          E(Eh)            E(eV)
   0   2.0000     -19.004303      -517.1334
   1   2.0000     -18.942626      -515.4550
   2   2.0000     -10.162902      -276.5466
   3   2.0000     -10.075266      -274.1619
   4   2.0000     -10.038259      -273.1549
   5   2.0000     -10.019095      -272.6334
   6   2.0000      -1.079520       -29.3752
   7   2.0000      -0.988509       -26.8987
   8   2.0000      -0.756729       -20.5916
   9   2.0000      -0.687990       -18.7212
  10   2.0000      -0.608182       -16.5495
  11   2.0000      -0.532282       -14.4841
  12   2.0000      -0.468790       -12.7564
  13   2.0000      -0.458030       -12.4636
  14   2.0000      -0.449893       -12.2422
  15   2.0000      -0.411724       -11.2036
  16   2.0000      -0.387203       -10.5363
  17   2.0000      -0.376584       -10.2474
  18   2.0000      -0.348462        -9.4821
  19   2.0000      -0.329466        -8.9652
  20   2.0000      -0.322169        -8.7667
  21   2.0000      -0.312104        -8.4928
  22   2.0000      -0.278572        -7.5803
  23   2.0000      -0.249807        -6.7976
  24   0.0000      -0.021438        -0.5834
  25   0.0000       0.071395         1.9428
  26   0.0000       0.103594         2.8189
  27   0.0000       0.133439         3.6311
  28   0.0000       0.135267         3.6808

MULLIKEN ATOMIC CHARGES
-----------------------
   0 C :   -0.494019
   1 C :   -0.306196
   2 C :    0.440504
   3 O :   -0.520594
   4 O :   -0.203832
   5 C :   -0.312705
   6 H :    0.166287
   7 H :    0.165938
   8 H :    0.164304
   9 H :    0.174205
  10 H :    0.191075
  11 H :    0.184811
  12 H :    0.174579
  13 H :    0.175643
Sum of atomic charges:   -0.0000000

LOEWDIN ATOMIC CHARGES
----------------------
   0 C :   -0.399191
   1 C :   -0.232638
   2 C :    0.367681
   3 O :   -0.501470
   4 O :   -0.607861
   5 C :   -0.039256
   6 H :    0.158589
   7 H :    0.163940
   8 H :    0.159938
   9 H :    0.178961
  10 H :    0.190064
  11 H :    0.192031
  12 H :    0.185191
  13 H :    0.184018

  Mayer bond orders larger than 0.100000
B(  0-C ,  1-C ) :   0.8805 B(  0-C ,  6-H ) :   0.9659 B(  0-C ,  7-H ) :   0.9722
B(  0-C ,  8-H ) :   0.9727 B(  1-C ,  2-C ) :   1.0014 B(  1-C ,  9-H ) :   0.9785
B(  1-C , 10-H ) :   0.9285 B(  2-C ,  3-O ) :   1.7904 B(  2-C ,  4-O ) :   1.0792
B(  4-O ,  5-C ) :   0.8265 B(  5-C , 11-H ) :   0.9649 B(  5-C , 12-H ) :   0.9568
B(  5-C , 13-H ) :   0.9540

Dispersion correction           -0.003006450
FINAL SINGLE POINT ENERGY      -307.634250069444

DIPOLE MOMENT
-------------

Method             : SCF
Type of density    : Electron Density
Multiplicity       :   1
Irrep              :   0
Energy             :  -307.6407750927405687 Eh
Relativity type    :
Basis              : AO
                                X                 Y                 Z
Electronic contribution:      2.240912408       2.709492362      -1.413082335
Nuclear contribution   :     -2.240779444      -3.899881295       1.564533372
                        -----------------------------------------
Total Dipole Moment    :      0.000132963      -1.190388933       0.151451036
                        -----------------------------------------
Magnitude (a.u.)       :      1.199984685
Magnitude (Debye)      :      3.050118673

Rotational constants in cm-1:             0.202813             0.087650             0.066355
Rotational constants in MHz :          6080.184526          2627.682246          1989.286243

                             ****ORCA TERMINATED NORMALLY****
TOTAL RUN TIME: 0 days 0 hours 0 minutes 21 seconds 265 msec
