                         Program Version 6.0.0  -   RELEASE  -
|  1> ! r2scan-3c def2/J RI DEFGRID2 scfconv6 printgap
|  2> %output
|  3>     printlevel normal
|  4> end
|  5> %cpcm
|  6>     smd true
|  7>     smdsolvent "water"
|  8> end
|  9> * xyz 0 1
| 10> C -2.2155590126 -0.0822321672 -0.6611196904
| 11> C -1.4096410634 0.2176841414 0.5935987593
| 12> O -0.1117393113 0.7375873151 0.2632577311
| 13> C 0.8780138662 -0.1192589334 0.0375003524
| 14> O 0.7552092005 -1.3239005802 0.1256106401
| 15> C 2.145501905 0.5894077479 -0.3345854459
| 16> H -3.2123052141 -0.4059299642 -0.3799025364
| 17> H -2.2877468347 0.8075919346 -1.2806276162
| 18> H -1.7353602005 -0.8742152178 -1.2315837012
| 19> H -1.280073492 -0.6879226364 1.1942457125
| 20> H -1.8778307715 1.003081533 1.187697595
| 21> H 2.0810124609 1.6354056742 -0.0553725225
| 22> H 2.2803010486 0.5089301918 -1.4111725165
| 23> H 2.9877129193 0.1034117184 0.1487551006
| 24> *
| 25>
| 26>                          ****END OF INPUT****

CARTESIAN COORDINATES (ANGSTROEM)
---------------------------------
  C     -2.215559   -0.082232   -0.661120
  C     -1.409641    0.217684    0.593599
  O     -0.111739    0.737587    0.263258
  C      0.878014   -0.119259    0.037500
  O      0.755209   -1.323901    0.125611
  C      2.145502    0.589408   -0.334585
  H     -3.212305   -0.405930   -0.379903
  H     -2.287747    0.807592   -1.280628
  H     -1.735360   -0.874215   -1.231584
  H     -1.280073   -0.687923    1.194246
  H     -1.877831    1.003082    1.187698
  H      2.081012    1.635406   -0.055373
  H      2.280301    0.508930   -1.411173
  H      2.987713    0.103412    0.148755

 Total Charge           Charge          ....    0
 Multiplicity           Mult            ....    1
 Number of Electrons    NEL             ....   48
 Basis Dimension        Dim             ....  164

ORBITAL ENERGIES
----------------

  NO   OCC          E(Eh)            E(eV)
   0   2.0000     -19.002415      -517.0820
   1   2.0000     -18.942877      -515.4619
   2   2.0000     -10.165486      -276.6169
   3   2.0000     -10.083166      -274.3769
   4   2.0000     -10.030097      -272.9328
   5   2.0000     -10.018319      -272.6123
   6   2.0000      -1.078670       -29.3521
   7   2.0000      -0.988632       -26.9020
   8   2.0000      -0.749630       -20.3985
   9   2.0000      -0.699061       -19.0224
  10   2.0000      -0.616365       -16.7721
  11   2.0000      -0.522052       -14.2058
  12   2.0000      -0.468667       -12.7531
  13   2.0000      -0.460675       -12.5356
  14   2.0000      -0.443547       -12.0695
  15   2.0000      -0.402561       -10.9542
  16   2.0000      -0.388050       -10.5594
  17   2.0000      -0.371935       -10.1209
  18   2.0000      -0.362011        -9.8508
  19   2.0000      -0.338456        -9.2099
  20   2.0000      -0.333585        -9.0773
  21   2.0000      -0.304800        -8.2940
  22   2.0000      -0.278792        -7.5863
  23   2.0000      -0.253054        -6.8859
  24   0.0000      -0.021202        -0.5769
  25   0.0000       0.081327         2.2130
  26   0.0000       0.101598         2.7646
  27   0.0000       0.133400         3.6300
  28   0.0000       0.137408         3.7391

MULLIKEN ATOMIC CHARGES
-----------------------
   0 C :   -0.490408
   1 C :   -0.142284
   2 O :   -0.198319
   3 C :    0.472610
   4 O :   -0.516132
   5 C :   -0.554800
   6 H :    0.169691
   7 H :    0.165453
   8 H :    0.167093
   9 H :    0.170844
  10 H :    0.173332
  11 H :    0.187892
  12 H :    0.204228
  13 H :    0.190800
Sum of atomic charges:   -0.0000000

LOEWDIN ATOMIC CHARGES
----------------------
   0 C :   -0.393256
   1 C :    0.031496
   2 O :   -0.601850
   3 C :    0.365131
   4 O :   -0.498407
   5 C :   -0.333920
   6 H :    0.167712
   7 H :    0.161960
   8 H :    0.162203
   9 H :    0.189617
  10 H :    0.188957
  11 H :    0.182734
  12 H :    0.192984
  13 H :    0.184638

  Mayer bond orders larger than 0.100000
B(  0-C ,  1-C ) :   0.9374 B(  0-C ,  6-H ) :   0.9603 B(  0-C ,  7-H ) :   0.9699
B(  0-C ,  8-H ) :   0.9688 B(  1-C ,  2-O ) :   0.8007 B(  1-C ,  9-H ) :   0.9612
B(  1-C , 10-H ) :   0.9520 B(  2-O ,  3-C ) :   1.0850 B(  3-C ,  4-O ) :   1.7636
B(  3-C ,  5-C ) :   0.9512 B(  5-C , 11-H ) :   0.9717 B(  5-C , 12-H ) :   0.9257
B(  5-C , 13-H ) :   0.9589

Dispersion correction           -0.002981016
FINAL SINGLE POINT ENERGY      -307.643219974193

DIPOLE MOMENT
-------------

Method             : SCF
Type of density    : Electron Density
Multiplicity       :   1
Irrep              :   0
Energy             :  -307.6494120620495210 Eh
Relativity type    :
Basis              : AO
                                X                 Y                 Z
Electronic contribution:      2.495665220      -0.882338001       1.629590800
Nuclear contribution   :     -2.846513395       1.952404370      -1.709167363
                        -----------------------------------------
Total Dipole Moment    :     -0.350848174       1.070066369      -0.079576563
                        -----------------------------------------
Magnitude (a.u.)       :      1.128923782
Magnitude (Debye)      :      2.869496210

Rotational constants in cm-1:             0.247118             0.076749             0.068246
Rotational constants in MHz :          7408.414957          2300.882540          2045.955743

                             ****ORCA TERMINATED NORMALLY****
TOTAL RUN TIME: 0 days 0 hours 0 minutes 17 seconds 663 msec
