                         Program Version 6.0.0  -   RELEASE  -
|  1> ! wb97x-v def2-tzvp def2/J RIJCOSX DEFGRID2 scfconv7 GCP(DFT/TZ) printgap
|  2> %output
|  3>     printlevel normal
|  4> end
|  5> * xyz 0 1
|  6> C 2.1473044561739836 0.06942709600914489 -0.25241476569690086
|  7> C 0.7617825401072256 0.0886594409220062 0.3544671824752198
|  8> H 0.8366622565558607 0.10895511098795191 1.4526622497285475
|  9> C -0.14125034768569525 1.2228916656427744 -0.11818445325067506
| 10> C -1.5351106071201155 0.6230183731754275 0.06514491500279429
| 11> C -1.307922400858932 -0.8137625998970229 -0.3872610748581681
| 12> O 0.05731147887929061 -1.1356869425749039 -0.017853494651367093
| 13> H 2.6902726441873304 0.9768728059547306 0.03206328250689794
| 14> H 2.7207339251241662 -0.7927765994837027 0.10167891410863493
| 15> H 2.0862015393165336 0.028097302460321473 -1.345035367015654
| 16> H 0.01868308193013755 2.138896094044682 0.45611820474909626
| 17> H 0.049773766884596664 1.4336182590164643 -1.1775867911080489
| 18> H -1.8260301788210087 0.6514397474805206 1.120826142606974
| 19> H -2.3066633476914253 1.1251629504434821 -0.5239979854356615
| 20> H -1.9782057704727882 -1.5347234361559883 0.09234456039381476
| 21> H -1.4129107107844845 -0.9058539594192436 -1.4774069022566705
| 22> *
| 23>
| 24>                          ****END OF INPUT****

CARTESIAN COORDINATES (ANGSTROEM)
---------------------------------
  C      2.147304    0.069427   -0.252415
  C      0.761783    0.088659    0.354467
  H      0.836662    0.108955    1.452662
  C     -0.141250    1.222892   -0.118184
  C     -1.535111    0.623018    0.065145
  C     -1.307922   -0.813763   -0.387261
  O      0.057311   -1.135687   -0.017853
  H      2.690273    0.976873    0.032063
  H      2.720734   -0.792777    0.101679
  H      2.086202    0.028097   -1.345035
  H      0.018683    2.138896    0.456118
  H      0.049774    1.433618   -1.177587
  H     -1.826030    0.651440    1.120826
  H     -2.306663    1.125163   -0.523998
  H     -1.978206   -1.534723    0.092345
  H     -1.412911   -0.905854   -1.477407

 Total Charge           Charge          ....    0
 Multiplicity           Mult            ....    1
 Number of Electrons    NEL             ....   48
 Basis Dimension        Dim             ....  246

ORBITAL ENERGIES
----------------

  NO   OCC          E(Eh)            E(eV)
   0   2.0000     -21.658741      -589.3643
   1   2.0000     -12.091859      -329.0362
   2   2.0000     -12.085449      -328.8618
   3   2.0000     -12.047770      -327.8365
   4   2.0000     -12.046013      -327.7887
   5   2.0000     -12.032785      -327.4287
   6   2.0000      -1.657731       -45.1092
   7   2.0000      -1.313855       -35.7518
   8   2.0000      -1.281209       -34.8635
   9   2.0000      -1.177440       -32.0398
  10   2.0000      -1.094068       -29.7711
  11   2.0000      -1.066327       -29.0162
  12   2.0000      -0.972873       -26.4732
  13   2.0000      -0.962660       -26.1953
  14   2.0000      -0.920980       -25.0611
  15   2.0000      -0.874134       -23.7864
  16   2.0000      -0.865454       -23.5502
  17   2.0000      -0.851052       -23.1583
  18   2.0000      -0.827739       -22.5239
  19   2.0000      -0.813263       -22.1300
  20   2.0000      -0.795641       -21.6505
  21   2.0000      -0.788464       -21.4552
  22   2.0000      -0.761285       -20.7156
  23   2.0000      -0.754123       -20.5207
  24   0.0000      -0.161936        -4.4065
  25   0.0000      -0.127967        -3.4821
  26   0.0000      -0.029637        -0.8065
  27   0.0000      -0.023395        -0.6366
  28   0.0000      -0.018680        -0.5083

MULLIKEN ATOMIC CHARGES
-----------------------
   0 C :   -0.334085
   1 C :    0.098491
   2 H :    0.060148
   3 C :   -0.200140
   4 C :   -0.184552
   5 C :   -0.017528
   6 O :   -0.314000
   7 H :    0.102322
   8 H :    0.120807
   9 H :    0.104424
  10 H :    0.103980
  11 H :    0.094405
  12 H :    0.095717
  13 H :    0.104131
  14 H :    0.089750
  15 H :    0.076132
Sum of atomic charges:   -0.0000000

LOEWDIN ATOMIC CHARGES
----------------------
   0 C :   -0.283291
   1 C :   -0.321536
   2 H :    0.132474
   3 C :   -0.237644
   4 C :   -0.260375
   5 C :   -0.287680
   6 O :    0.126101
   7 H :    0.121448
   8 H :    0.122081
   9 H :    0.120099
  10 H :    0.133187
  11 H :    0.136864
  12 H :    0.133930
  13 H :    0.131699
  14 H :    0.117516
  15 H :    0.115127

  Mayer bond orders larger than 0.100000
B(  0-C ,  1-C ) :   0.9732 B(  0-C ,  7-H ) :   0.9741 B(  0-C ,  8-H ) :   0.9825
B(  0-C ,  9-H ) :   0.9754 B(  1-C ,  2-H ) :   0.9701 B(  1-C ,  3-C ) :   0.9894
B(  1-C ,  6-O ) :   1.0129 B(  3-C ,  4-C ) :   0.9789 B(  3-C , 10-H ) :   0.9652
B(  3-C , 11-H ) :   0.9709 B(  4-C ,  5-C ) :   1.0177 B(  4-C , 12-H ) :   0.9695
B(  4-C , 13-H ) :   0.9674 B(  5-C ,  6-O ) :   1.0232 B(  5-C , 14-H ) :   0.9647
B(  5-C , 15-H ) :   0.9698

FINAL SINGLE POINT ENERGY      -271.784075977290

DIPOLE MOMENT
-------------

Method             : SCF
Type of density    : Electron Density
Multiplicity       :   1
Irrep              :   0
Energy             :  -271.7951081178903792 Eh
Relativity type    :
Basis              : AO
                                X                 Y                 Z
Electronic contribution:     -0.978021196      -2.421388959       0.586283654
Nuclear contribution   :      0.726946329       3.080687218      -0.576342511
                        -----------------------------------------
Total Dipole Moment    :     -0.251074867       0.659298259       0.009941143
                        -----------------------------------------
Magnitude (a.u.)       :      0.705557659
Magnitude (Debye)      :      1.793385046

Rotational constants in cm-1:             0.216857             0.105978             0.079948
Rotational constants in MHz :          6501.209493          3177.135591          2396.773424

                             ****ORCA TERMINATED NORMALLY****
TOTAL RUN TIME: 0 days 0 hours 1 minutes 40 seconds 563 msec
