                         Program Version 6.0.0  -   RELEASE  -
|  1> ! wb97x-v def2-tzvp def2/J RIJCOSX DEFGRID2 scfconv7 GCP(DFT/TZ) printgap
|  2> %output
|  3>     printlevel normal
|  4> end
|  5> %cpcm
|  6>     smd true
|  7>     smdsolvent "water"
|  8> end
|  9> * xyz 0 1
| 10> C 2.1473044561739836 0.06942709600914489 -0.25241476569690086
| 11> C 0.7617825401072256 0.0886594409220062 0.3544671824752198
| 12> H 0.8366622565558607 0.10895511098795191 1.4526622497285475
| 13> C -0.14125034768569525 1.2228916656427744 -0.11818445325067506
| 14> C -1.5351106071201155 0.6230183731754275 0.06514491500279429
| 15> C -1.307922400858932 -0.8137625998970229 -0.3872610748581681
| 16> O 0.05731147887929061 -1.1356869425749039 -0.017853494651367093
| 17> H 2.6902726441873304 0.9768728059547306 0.03206328250689794
| 18> H 2.7207339251241662 -0.7927765994837027 0.10167891410863493
| 19> H 2.0862015393165336 0.028097302460321473 -1.345035367015654
| 20> H 0.01868308193013755 2.138896094044682 0.45611820474909626
| 21> H 0.049773766884596664 1.4336182590164643 -1.1775867911080489
| 22> H -1.8260301788210087 0.6514397474805206 1.120826142606974
| 23> H -2.3066633476914253 1.1251629504434821 -0.5239979854356615
| 24> H -1.9782057704727882 -1.5347234361559883 0.09234456039381476
| 25> H -1.4129107107844845 -0.9058539594192436 -1.4774069022566705
| 26> *
| 27>
| 28>                          ****END OF INPUT****

CARTESIAN COORDINATES (ANGSTROEM)
---------------------------------
  C      2.147304    0.069427   -0.252415
  C      0.761783    0.088659    0.354467
  H      0.836662    0.108955    1.452662
  C     -0.141250    1.222892   -0.118184
  C     -1.535111    0.623018    0.065145
  C     -1.307922   -0.813763   -0.387261
  O      0.057311   -1.135687   -0.017853
  H      2.690273    0.976873    0.032063
  H      2.720734   -0.792777    0.101679
  H      2.086202    0.028097   -1.345035
  H      0.018683    2.138896    0.456118
  H      0.049774    1.433618   -1.177587
  H     -1.826030    0.651440    1.120826
  H     -2.306663    1.125163   -0.523998
  H     -1.978206   -1.534723    0.092345
  H     -1.412911   -0.905854   -1.477407

 Total Charge           Charge          ....    0
 Multiplicity           Mult            ....    1
 Number of Electrons    NEL             ....   48
 Basis Dimension        Dim             ....  246

ORBITAL ENERGIES
----------------

  NO   OCC          E(Eh)            E(eV)
   0   2.0000     -21.667220      -589.5950
   1   2.0000     -12.088268      -328.9385
   2   2.0000     -12.081309      -328.7491
   3   2.0000     -12.036637      -327.5335
   4   2.0000     -12.034803      -327.4836
   5   2.0000     -12.027239      -327.2778
   6   2.0000      -1.666300       -45.3423
   7   2.0000      -1.306663       -35.5561
   8   2.0000      -1.278012       -34.7765
   9   2.0000      -1.172922       -31.9168
  10   2.0000      -1.089118       -29.6364
  11   2.0000      -1.063877       -28.9496
  12   2.0000      -0.974332       -26.5129
  13   2.0000      -0.964399       -26.2426
  14   2.0000      -0.922151       -25.0930
  15   2.0000      -0.867676       -23.6107
  16   2.0000      -0.858997       -23.3745
  17   2.0000      -0.848622       -23.0922
  18   2.0000      -0.821713       -22.3599
  19   2.0000      -0.807727       -21.9794
  20   2.0000      -0.787987       -21.4422
  21   2.0000      -0.781975       -21.2786
  22   2.0000      -0.754389       -20.5280
  23   2.0000      -0.749076       -20.3834
  24   0.0000      -0.160646        -4.3714
  25   0.0000      -0.126636        -3.4459
  26   0.0000      -0.021440        -0.5834
  27   0.0000      -0.012441        -0.3385
  28   0.0000      -0.008547        -0.2326

MULLIKEN ATOMIC CHARGES
-----------------------
   0 C :   -0.396392
   1 C :    0.108773
   2 H :    0.084741
   3 C :   -0.216021
   4 C :   -0.202091
   5 C :   -0.039420
   6 O :   -0.410497
   7 H :    0.129141
   8 H :    0.131939
   9 H :    0.123134
  10 H :    0.125531
  11 H :    0.110618
  12 H :    0.111712
  13 H :    0.125443
  14 H :    0.113754
  15 H :    0.099636
Sum of atomic charges:   -0.0000000

LOEWDIN ATOMIC CHARGES
----------------------
   0 C :   -0.291232
   1 C :   -0.321422
   2 H :    0.138169
   3 C :   -0.234406
   4 C :   -0.257421
   5 C :   -0.289581
   6 O :    0.083033
   7 H :    0.129135
   8 H :    0.121935
   9 H :    0.122490
  10 H :    0.139570
  11 H :    0.141229
  12 H :    0.138033
  13 H :    0.137932
  14 H :    0.121931
  15 H :    0.120605

  Mayer bond orders larger than 0.100000
B(  0-C ,  1-C ) :   0.9719 B(  0-C ,  7-H ) :   0.9714 B(  0-C ,  8-H ) :   0.9795
B(  0-C ,  9-H ) :   0.9714 B(  1-C ,  2-H ) :   0.9730 B(  1-C ,  3-C ) :   0.9972
B(  1-C ,  6-O ) :   0.9544 B(  3-C ,  4-C ) :   0.9775 B(  3-C , 10-H ) :   0.9603
B(  3-C , 11-H ) :   0.9679 B(  4-C ,  5-C ) :   1.0182 B(  4-C , 12-H ) :   0.9680
B(  4-C , 13-H ) :   0.9625 B(  5-C ,  6-O ) :   0.9762 B(  5-C , 14-H ) :   0.9625
B(  5-C , 15-H ) :   0.9716

FINAL SINGLE POINT ENERGY      -271.788911081371

DIPOLE MOMENT
-------------

Method             : SCF
Type of density    : Electron Density
Multiplicity       :   1
Irrep              :   0
Energy             :  -271.7999432219714322 Eh
Relativity type    :
Basis              : AO
                                X                 Y                 Z
Electronic contribution:     -1.088526602      -2.095698912       0.596147971
Nuclear contribution   :      0.726946329       3.080687218      -0.576342511
                        -----------------------------------------
Total Dipole Moment    :     -0.361580274       0.984988306       0.019805459
                        -----------------------------------------
Magnitude (a.u.)       :      1.049444860
Magnitude (Debye)      :      2.667476846

Rotational constants in cm-1:             0.216857             0.105978             0.079948
Rotational constants in MHz :          6501.209493          3177.135591          2396.773424

                             ****ORCA TERMINATED NORMALLY****
TOTAL RUN TIME: 0 days 0 hours 1 minutes 47 seconds 435 msec
