                         Program Version 6.0.0  -   RELEASE  -
|  1> ! r2scan-3c def2/J RI DEFGRID2 scfconv6 printgap
|  2> %output
|  3>     printlevel normal
|  4> end
|  5> * xyz 0 1
|  6> C -2.7423848463 0.6812369026 0.7746512311
|  7> C -1.7537900634 -0.0987360642 -0.0400006822
|  8> O -2.0838347654 -0.7774116083 -0.9933542952
|  9> C -0.309236293 0.0386060355 0.3922268802
| 10> C 0.3278897029 1.1560333467 -0.4519734755
| 11> C 1.7976356774 1.3302060099 -0.0824420184
| 12> C 2.5606444858 0.0252692843 -0.2864843657
| 13> C 1.9335642071 -1.0891317928 0.5453590357
| 14> C 0.4628975573 -1.2660552923 0.1831394712
| 15> H -2.3844972043 1.6953371782 0.9285946527
| 16> H -3.7137987336 0.6911505558 0.2883054293
| 17> H -2.8351281099 0.2062983805 1.7494142873
| 18> H -0.2692279026 0.3278144567 1.445648448
| 19> H 0.241058054 0.889906119 -1.5080512071
| 20> H -0.2095121892 2.0932801714 -0.2954054208
| 21> H 2.2344837379 2.1182427634 -0.6980435609
| 22> H 1.8746135152 1.6361702727 0.9628812123
| 23> H 2.5294302802 -0.2509941226 -1.3426647455
| 24> H 3.6064242172 0.1575284024 -0.0039546128
| 25> H 2.466108803 -2.0264072426 0.3762595067
| 26> H 2.0175629924 -0.8417625311 1.6059481789
| 27> H 0.3669212669 -1.566319687 -0.8625575553
| 28> H 0.0170350172 -2.0541196865 0.7944236394
| 29> *
| 30>
| 31>                          ****END OF INPUT****

CARTESIAN COORDINATES (ANGSTROEM)
---------------------------------
  C     -2.742385    0.681237    0.774651
  C     -1.753790   -0.098736   -0.040001
  O     -2.083835   -0.777412   -0.993354
  C     -0.309236    0.038606    0.392227
  C      0.327890    1.156033   -0.451973
  C      1.797636    1.330206   -0.082442
  C      2.560644    0.025269   -0.286484
  C      1.933564   -1.089132    0.545359
  C      0.462898   -1.266055    0.183139
  H     -2.384497    1.695337    0.928595
  H     -3.713799    0.691151    0.288305
  H     -2.835128    0.206298    1.749414
  H     -0.269228    0.327814    1.445648
  H      0.241058    0.889906   -1.508051
  H     -0.209512    2.093280   -0.295405
  H      2.234484    2.118243   -0.698044
  H      1.874614    1.636170    0.962881
  H      2.529430   -0.250994   -1.342665
  H      3.606424    0.157528   -0.003955
  H      2.466109   -2.026407    0.376260
  H      2.017563   -0.841763    1.605948
  H      0.366921   -1.566320   -0.862558
  H      0.017035   -2.054120    0.794424

 Total Charge           Charge          ....    0
 Multiplicity           Mult            ....    1
 Number of Electrons    NEL             ....   70
 Basis Dimension        Dim             ....  246

ORBITAL ENERGIES
----------------

  NO   OCC          E(Eh)            E(eV)
   0   2.0000     -18.934654      -515.2381
   1   2.0000     -10.113852      -275.2119
   2   2.0000     -10.040275      -273.2098
   3   2.0000     -10.036467      -273.1062
   4   2.0000     -10.032796      -273.0062
   5   2.0000     -10.029776      -272.9241
   6   2.0000     -10.025597      -272.8104
   7   2.0000     -10.025423      -272.8056
   8   2.0000     -10.024755      -272.7875
   9   2.0000      -1.000533       -27.2259
  10   2.0000      -0.809422       -22.0255
  11   2.0000      -0.739588       -20.1252
  12   2.0000      -0.713574       -19.4173
  13   2.0000      -0.699979       -19.0474
  14   2.0000      -0.594938       -16.1891
  15   2.0000      -0.580397       -15.7934
  16   2.0000      -0.530354       -14.4317
  17   2.0000      -0.497369       -13.5341
  18   2.0000      -0.449372       -12.2280
  19   2.0000      -0.434990       -11.8367
  20   2.0000      -0.422507       -11.4970
  21   2.0000      -0.417894       -11.3715
  22   2.0000      -0.406324       -11.0566
  23   2.0000      -0.394420       -10.7327
  24   2.0000      -0.379528       -10.3275
  25   2.0000      -0.355392        -9.6707
  26   2.0000      -0.352162        -9.5828
  27   2.0000      -0.345912        -9.4128
  28   2.0000      -0.321140        -8.7387
  29   2.0000      -0.319640        -8.6978
  30   2.0000      -0.313482        -8.5303
  31   2.0000      -0.295213        -8.0332
  32   2.0000      -0.282763        -7.6944
  33   2.0000      -0.271550        -7.3893
  34   2.0000      -0.208617        -5.6767
  35   0.0000      -0.042818        -1.1651
  36   0.0000       0.070049         1.9061
  37   0.0000       0.092799         2.5252
  38   0.0000       0.103277         2.8103
  39   0.0000       0.112618         3.0645

MULLIKEN ATOMIC CHARGES
-----------------------
   0 C :   -0.510470
   1 C :    0.276220
   2 O :   -0.356401
   3 C :   -0.078244
   4 C :   -0.321514
   5 C :   -0.278342
   6 C :   -0.286934
   7 C :   -0.266670
   8 C :   -0.366701
   9 H :    0.153728
  10 H :    0.177779
  11 H :    0.170620
  12 H :    0.166744
  13 H :    0.176882
  14 H :    0.139104
  15 H :    0.149003
  16 H :    0.142798
  17 H :    0.145968
  18 H :    0.148024
  19 H :    0.148038
  20 H :    0.140823
  21 H :    0.182450
  22 H :    0.147094
Sum of atomic charges:   -0.0000000

LOEWDIN ATOMIC CHARGES
----------------------
   0 C :   -0.383355
   1 C :    0.223447
   2 O :   -0.466778
   3 C :   -0.207910
   4 C :   -0.270163
   5 C :   -0.299533
   6 C :   -0.303180
   7 C :   -0.301345
   8 C :   -0.275874
   9 H :    0.169097
  10 H :    0.173235
  11 H :    0.176513
  12 H :    0.167893
  13 H :    0.168463
  14 H :    0.158170
  15 H :    0.157123
  16 H :    0.155221
  17 H :    0.156472
  18 H :    0.155458
  19 H :    0.156819
  20 H :    0.153991
  21 H :    0.174475
  22 H :    0.161762

  Mayer bond orders larger than 0.100000
B(  0-C ,  1-C ) :   0.9063 B(  0-C ,  9-H ) :   0.9446 B(  0-C , 10-H ) :   0.9905
B(  0-C , 11-H ) :   0.9511 B(  1-C ,  2-O ) :   1.9686 B(  1-C ,  3-C ) :   0.8487
B(  3-C ,  4-C ) :   0.8995 B(  3-C ,  8-C ) :   0.8970 B(  3-C , 12-H ) :   0.9465
B(  4-C ,  5-C ) :   0.9012 B(  4-C , 13-H ) :   1.0029 B(  4-C , 14-H ) :   0.9321
B(  5-C ,  6-C ) :   0.9251 B(  5-C , 15-H ) :   0.9435 B(  5-C , 16-H ) :   0.9894
B(  6-C ,  7-C ) :   0.9190 B(  6-C , 17-H ) :   0.9944 B(  6-C , 18-H ) :   0.9484
B(  7-C ,  8-C ) :   0.8937 B(  7-C , 19-H ) :   0.9452 B(  7-C , 20-H ) :   0.9877
B(  8-C , 21-H ) :   1.0018 B(  8-C , 22-H ) :   0.9479

Dispersion correction           -0.007287913
FINAL SINGLE POINT ENERGY      -388.408874300323

DIPOLE MOMENT
-------------

Method             : SCF
Type of density    : Electron Density
Multiplicity       :   1
Irrep              :   0
Energy             :  -388.4112856271873397 Eh
Relativity type    :
Basis              : AO
                                X                 Y                 Z
Electronic contribution:     -5.083018601      -2.245239957      -2.389304104
Nuclear contribution   :      5.543183336       2.874386133       3.213307509
                        -----------------------------------------
Total Dipole Moment    :      0.460164735       0.629146176       0.824003404
                        -----------------------------------------
Magnitude (a.u.)       :      1.134265447
Magnitude (Debye)      :      2.883073645

Rotational constants in cm-1:             0.104009             0.035200             0.030961
Rotational constants in MHz :          3118.104284          1055.281088           928.194474

                             ****ORCA TERMINATED NORMALLY****
TOTAL RUN TIME: 0 days 0 hours 0 minutes 34 seconds 913 msec
