                         Program Version 6.0.0  -   RELEASE  -
|  1> ! r2scan-3c def2/J RI DEFGRID2 scfconv6 printgap
|  2> %output
|  3>     printlevel normal
|  4> end
|  5> %cpcm
|  6>     smd true
|  7>     smdsolvent "water"
|  8> end
|  9> * xyz 0 1
| 10> C -2.7423848463 0.6812369026 0.7746512311
| 11> C -1.7537900634 -0.0987360642 -0.0400006822
| 12> O -2.0838347654 -0.7774116083 -0.9933542952
| 13> C -0.309236293 0.0386060355 0.3922268802
| 14> C 0.3278897029 1.1560333467 -0.4519734755
| 15> C 1.7976356774 1.3302060099 -0.0824420184
| 16> C 2.5606444858 0.0252692843 -0.2864843657
| 17> C 1.9335642071 -1.0891317928 0.5453590357
| 18> C 0.4628975573 -1.2660552923 0.1831394712
| 19> H -2.3844972043 1.6953371782 0.9285946527
| 20> H -3.7137987336 0.6911505558 0.2883054293
| 21> H -2.8351281099 0.2062983805 1.7494142873
| 22> H -0.2692279026 0.3278144567 1.445648448
| 23> H 0.241058054 0.889906119 -1.5080512071
| 24> H -0.2095121892 2.0932801714 -0.2954054208
| 25> H 2.2344837379 2.1182427634 -0.6980435609
| 26> H 1.8746135152 1.6361702727 0.9628812123
| 27> H 2.5294302802 -0.2509941226 -1.3426647455
| 28> H 3.6064242172 0.1575284024 -0.0039546128
| 29> H 2.466108803 -2.0264072426 0.3762595067
| 30> H 2.0175629924 -0.8417625311 1.6059481789
| 31> H 0.3669212669 -1.566319687 -0.8625575553
| 32> H 0.0170350172 -2.0541196865 0.7944236394
| 33> *
| 34>
| 35>                          ****END OF INPUT****

CARTESIAN COORDINATES (ANGSTROEM)
---------------------------------
  C     -2.742385    0.681237    0.774651
  C     -1.753790   -0.098736   -0.040001
  O     -2.083835   -0.777412   -0.993354
  C     -0.309236    0.038606    0.392227
  C      0.327890    1.156033   -0.451973
  C      1.797636    1.330206   -0.082442
  C      2.560644    0.025269   -0.286484
  C      1.933564   -1.089132    0.545359
  C      0.462898   -1.266055    0.183139
  H     -2.384497    1.695337    0.928595
  H     -3.713799    0.691151    0.288305
  H     -2.835128    0.206298    1.749414
  H     -0.269228    0.327814    1.445648
  H      0.241058    0.889906   -1.508051
  H     -0.209512    2.093280   -0.295405
  H      2.234484    2.118243   -0.698044
  H      1.874614    1.636170    0.962881
  H      2.529430   -0.250994   -1.342665
  H      3.606424    0.157528   -0.003955
  H      2.466109   -2.026407    0.376260
  H      2.017563   -0.841763    1.605948
  H      0.366921   -1.566320   -0.862558
  H      0.017035   -2.054120    0.794424

 Total Charge           Charge          ....    0
 Multiplicity           Mult            ....    1
 Number of Electrons    NEL             ....   70
 Basis Dimension        Dim             ....  246

ORBITAL ENERGIES
----------------

  NO   OCC          E(Eh)            E(eV)
   0   2.0000     -18.945072      -515.5216
   1   2.0000     -10.121018      -275.4069
   2   2.0000     -10.032005      -272.9847
   3   2.0000     -10.025116      -272.7973
   4   2.0000     -10.021849      -272.7084
   5   2.0000     -10.018140      -272.6074
   6   2.0000     -10.017016      -272.5769
   7   2.0000     -10.015249      -272.5288
   8   2.0000     -10.014003      -272.4949
   9   2.0000      -1.013646       -27.5827
  10   2.0000      -0.799939       -21.7675
  11   2.0000      -0.731471       -19.9043
  12   2.0000      -0.703438       -19.1415
  13   2.0000      -0.690745       -18.7961
  14   2.0000      -0.586512       -15.9598
  15   2.0000      -0.570484       -15.5236
  16   2.0000      -0.520086       -14.1523
  17   2.0000      -0.494200       -13.4479
  18   2.0000      -0.446315       -12.1449
  19   2.0000      -0.429636       -11.6910
  20   2.0000      -0.414856       -11.2888
  21   2.0000      -0.411839       -11.2067
  22   2.0000      -0.397293       -10.8109
  23   2.0000      -0.390209       -10.6181
  24   2.0000      -0.375298       -10.2124
  25   2.0000      -0.348283        -9.4773
  26   2.0000      -0.341720        -9.2987
  27   2.0000      -0.337960        -9.1964
  28   2.0000      -0.322532        -8.7765
  29   2.0000      -0.309117        -8.4115
  30   2.0000      -0.305483        -8.3126
  31   2.0000      -0.284498        -7.7416
  32   2.0000      -0.275453        -7.4954
  33   2.0000      -0.261862        -7.1256
  34   2.0000      -0.218099        -5.9348
  35   0.0000      -0.046355        -1.2614
  36   0.0000       0.081417         2.2155
  37   0.0000       0.104798         2.8517
  38   0.0000       0.113411         3.0861
  39   0.0000       0.125458         3.4139

MULLIKEN ATOMIC CHARGES
-----------------------
   0 C :   -0.542527
   1 C :    0.308425
   2 O :   -0.464140
   3 C :   -0.053437
   4 C :   -0.336993
   5 C :   -0.294773
   6 C :   -0.303834
   7 C :   -0.289080
   8 C :   -0.377598
   9 H :    0.185885
  10 H :    0.178288
  11 H :    0.202447
  12 H :    0.192381
  13 H :    0.175703
  14 H :    0.161070
  15 H :    0.157626
  16 H :    0.155871
  17 H :    0.152054
  18 H :    0.155329
  19 H :    0.154823
  20 H :    0.153964
  21 H :    0.167511
  22 H :    0.161006
Sum of atomic charges:   -0.0000000

LOEWDIN ATOMIC CHARGES
----------------------
   0 C :   -0.380490
   1 C :    0.240618
   2 O :   -0.544731
   3 C :   -0.201137
   4 C :   -0.268830
   5 C :   -0.300087
   6 C :   -0.306309
   7 C :   -0.302454
   8 C :   -0.280636
   9 H :    0.183769
  10 H :    0.172588
  11 H :    0.190808
  12 H :    0.180363
  13 H :    0.166768
  14 H :    0.165777
  15 H :    0.159662
  16 H :    0.159729
  17 H :    0.157684
  18 H :    0.157200
  19 H :    0.158176
  20 H :    0.158808
  21 H :    0.168326
  22 H :    0.164398

  Mayer bond orders larger than 0.100000
B(  0-C ,  1-C ) :   0.9308 B(  0-C ,  9-H ) :   0.9308 B(  0-C , 10-H ) :   0.9860
B(  0-C , 11-H ) :   0.9353 B(  1-C ,  2-O ) :   1.8872 B(  1-C ,  3-C ) :   0.8665
B(  3-C ,  4-C ) :   0.8922 B(  3-C ,  8-C ) :   0.8916 B(  3-C , 12-H ) :   0.9331
B(  4-C ,  5-C ) :   0.8948 B(  4-C , 13-H ) :   1.0024 B(  4-C , 14-H ) :   0.9285
B(  5-C ,  6-C ) :   0.9203 B(  5-C , 15-H ) :   0.9430 B(  5-C , 16-H ) :   0.9871
B(  6-C ,  7-C ) :   0.9175 B(  6-C , 17-H ) :   0.9938 B(  6-C , 18-H ) :   0.9476
B(  7-C ,  8-C ) :   0.9038 B(  7-C , 19-H ) :   0.9454 B(  7-C , 20-H ) :   0.9855
B(  8-C , 21-H ) :   0.9999 B(  8-C , 22-H ) :   0.9450

Dispersion correction           -0.007287913
FINAL SINGLE POINT ENERGY      -388.415758327137

DIPOLE MOMENT
-------------

Method             : SCF
Type of density    : Electron Density
Multiplicity       :   1
Irrep              :   0
Energy             :  -388.4181696540015878 Eh
Relativity type    :
Basis              : AO
                                X                 Y                 Z
Electronic contribution:     -4.910925048      -1.882548225      -1.904305828
Nuclear contribution   :      5.543183336       2.874386133       3.213307509
                        -----------------------------------------
Total Dipole Moment    :      0.632258288       0.991837908       1.309001680
                        -----------------------------------------
Magnitude (a.u.)       :      1.759823394
Magnitude (Debye)      :      4.473115582

Rotational constants in cm-1:             0.104009             0.035200             0.030961
Rotational constants in MHz :          3118.104284          1055.281088           928.194474

                             ****ORCA TERMINATED NORMALLY****
TOTAL RUN TIME: 0 days 0 hours 0 minutes 38 seconds 108 msec
