                         Program Version 6.0.0  -   RELEASE  -
|  1> ! r2scan-3c def2/J RI DEFGRID2 scfconv6 printgap
|  2> %output
|  3>     printlevel normal
|  4> end
|  5> * xyz 0 1
|  6> C -0.6436960761 0.9711288898 6.2211e-06
|  7> C 0.719530373 0.9063199228 2.4659e-06
|  8> N 1.1262237205 -0.3935434047 4.6728e-06
|  9> C 0.0274076909 -1.1009006176 7.254e-07
| 10> N -1.0768304585 -0.3231466114 1.20767e-05
| 11> H -1.3140667696 1.8041658563 -9.51654e-05
| 12> H 1.4352703675 1.7034119605 -7.52593e-05
| 13> H -0.0018074894 -2.1713805925 -0.0001171856
| 14> H -2.0360256443 -0.6302538794 -5.73056e-05
| 15> *
| 16>
| 17>                          ****END OF INPUT****

CARTESIAN COORDINATES (ANGSTROEM)
---------------------------------
  C     -0.643696    0.971129    0.000006
  C      0.719530    0.906320    0.000002
  N      1.126224   -0.393543    0.000005
  C      0.027408   -1.100901    0.000001
  N     -1.076830   -0.323147    0.000012
  H     -1.314067    1.804166   -0.000095
  H      1.435270    1.703412   -0.000075
  H     -0.001807   -2.171381   -0.000117
  H     -2.036026   -0.630254   -0.000057

 Total Charge           Charge          ....    0
 Multiplicity           Mult            ....    1
 Number of Electrons    NEL             ....   36
 Basis Dimension        Dim             ....  125

ORBITAL ENERGIES
----------------

  NO   OCC          E(Eh)            E(eV)
   0   2.0000     -14.223027      -387.0282
   1   2.0000     -14.136371      -384.6702
   2   2.0000     -10.080893      -274.3151
   3   2.0000     -10.059468      -273.7320
   4   2.0000     -10.040961      -273.2284
   5   2.0000      -0.990297       -26.9473
   6   2.0000      -0.843707       -22.9584
   7   2.0000      -0.713890       -19.4259
   8   2.0000      -0.589469       -16.0403
   9   2.0000      -0.562466       -15.3055
  10   2.0000      -0.535015       -14.5585
  11   2.0000      -0.413854       -11.2615
  12   2.0000      -0.409053       -11.1309
  13   2.0000      -0.407841       -11.0979
  14   2.0000      -0.376256       -10.2384
  15   2.0000      -0.264874        -7.2076
  16   2.0000      -0.238744        -6.4966
  17   2.0000      -0.212417        -5.7802
  18   0.0000      -0.002189        -0.0596
  19   0.0000       0.035393         0.9631
  20   0.0000       0.066872         1.8197
  21   0.0000       0.115539         3.1440
  22   0.0000       0.124348         3.3837

MULLIKEN ATOMIC CHARGES
-----------------------
   0 C :   -0.187250
   1 C :   -0.121769
   2 N :   -0.197102
   3 C :   -0.115954
   4 N :   -0.025043
   5 H :    0.136803
   6 H :    0.133595
   7 H :    0.134190
   8 H :    0.242529
Sum of atomic charges:   -0.0000000

LOEWDIN ATOMIC CHARGES
----------------------
   0 C :    0.048446
   1 C :    0.049700
   2 N :   -0.566991
   3 C :    0.206352
   4 N :   -0.583153
   5 H :    0.185337
   6 H :    0.182565
   7 H :    0.197850
   8 H :    0.279895

  Mayer bond orders larger than 0.100000
B(  0-C ,  1-C ) :   1.5044 B(  0-C ,  3-C ) :   0.1065 B(  0-C ,  4-N ) :   1.2068
B(  0-C ,  5-H ) :   0.9592 B(  1-C ,  2-N ) :   1.3072 B(  1-C ,  6-H ) :   0.9760
B(  2-N ,  3-C ) :   1.6157 B(  3-C ,  4-N ) :   1.2094 B(  3-C ,  7-H ) :   0.9700
B(  4-N ,  8-H ) :   0.9092

Dispersion correction           -0.002017662
FINAL SINGLE POINT ENERGY      -226.158841367893

DIPOLE MOMENT
-------------

Method             : SCF
Type of density    : Electron Density
Multiplicity       :   1
Irrep              :   0
Energy             :  -226.1651945841500435 Eh
Relativity type    :
Basis              : AO
                                X                 Y                 Z
Electronic contribution:      0.339327591      -0.651343102       0.000183468
Nuclear contribution   :     -1.797860677       0.658350943      -0.000323499
                        -----------------------------------------
Total Dipole Moment    :     -1.458533086       0.007007841      -0.000140031
                        -----------------------------------------
Magnitude (a.u.)       :      1.458549928
Magnitude (Debye)      :      3.707339291

Rotational constants in cm-1:             0.332226             0.316826             0.162172
Rotational constants in MHz :          9959.880514          9498.196788          4861.780725

                             ****ORCA TERMINATED NORMALLY****
TOTAL RUN TIME: 0 days 0 hours 0 minutes 13 seconds 99 msec
