                         Program Version 6.0.0  -   RELEASE  -
|  1> ! r2scan-3c def2/J RI DEFGRID2 scfconv6 printgap
|  2> %output
|  3>     printlevel normal
|  4> end
|  5> %cpcm
|  6>     smd true
|  7>     smdsolvent "water"
|  8> end
|  9> * xyz 0 1
| 10> C -0.6436960761 0.9711288898 6.2211e-06
| 11> C 0.719530373 0.9063199228 2.4659e-06
| 12> N 1.1262237205 -0.3935434047 4.6728e-06
| 13> C 0.0274076909 -1.1009006176 7.254e-07
| 14> N -1.0768304585 -0.3231466114 1.20767e-05
| 15> H -1.3140667696 1.8041658563 -9.51654e-05
| 16> H 1.4352703675 1.7034119605 -7.52593e-05
| 17> H -0.0018074894 -2.1713805925 -0.0001171856
| 18> H -2.0360256443 -0.6302538794 -5.73056e-05
| 19> *
| 20>
| 21>                          ****END OF INPUT****

CARTESIAN COORDINATES (ANGSTROEM)
---------------------------------
  C     -0.643696    0.971129    0.000006
  C      0.719530    0.906320    0.000002
  N      1.126224   -0.393543    0.000005
  C      0.027408   -1.100901    0.000001
  N     -1.076830   -0.323147    0.000012
  H     -1.314067    1.804166   -0.000095
  H      1.435270    1.703412   -0.000075
  H     -0.001807   -2.171381   -0.000117
  H     -2.036026   -0.630254   -0.000057

 Total Charge           Charge          ....    0
 Multiplicity           Mult            ....    1
 Number of Electrons    NEL             ....   36
 Basis Dimension        Dim             ....  125

ORBITAL ENERGIES
----------------

  NO   OCC          E(Eh)            E(eV)
   0   2.0000     -14.213030      -386.7562
   1   2.0000     -14.142856      -384.8467
   2   2.0000     -10.078179      -274.2412
   3   2.0000     -10.054409      -273.5944
   4   2.0000     -10.040060      -273.2039
   5   2.0000      -0.987101       -26.8604
   6   2.0000      -0.842140       -22.9158
   7   2.0000      -0.710496       -19.3336
   8   2.0000      -0.580719       -15.8022
   9   2.0000      -0.558078       -15.1861
  10   2.0000      -0.527729       -14.3602
  11   2.0000      -0.408348       -11.1117
  12   2.0000      -0.408268       -11.1095
  13   2.0000      -0.399192       -10.8626
  14   2.0000      -0.374126       -10.1805
  15   2.0000      -0.267572        -7.2810
  16   2.0000      -0.252049        -6.8586
  17   2.0000      -0.213155        -5.8002
  18   0.0000      -0.000246        -0.0067
  19   0.0000       0.031728         0.8634
  20   0.0000       0.092849         2.5265
  21   0.0000       0.122964         3.3460
  22   0.0000       0.137669         3.7462

MULLIKEN ATOMIC CHARGES
-----------------------
   0 C :   -0.200776
   1 C :   -0.180568
   2 N :   -0.283175
   3 C :   -0.113148
   4 N :   -0.046265
   5 H :    0.178424
   6 H :    0.162167
   7 H :    0.174041
   8 H :    0.309301
Sum of atomic charges:    0.0000000

LOEWDIN ATOMIC CHARGES
----------------------
   0 C :    0.056100
   1 C :    0.020586
   2 N :   -0.640261
   3 C :    0.207160
   4 N :   -0.547624
   5 H :    0.201436
   6 H :    0.189814
   7 H :    0.211852
   8 H :    0.300939

  Mayer bond orders larger than 0.100000
B(  0-C ,  1-C ) :   1.5027 B(  0-C ,  4-N ) :   1.1936 B(  0-C ,  5-H ) :   0.9665
B(  1-C ,  2-N ) :   1.2923 B(  1-C ,  6-H ) :   0.9721 B(  2-N ,  3-C ) :   1.5916
B(  3-C ,  4-N ) :   1.2305 B(  3-C ,  7-H ) :   0.9627 B(  4-N ,  8-H ) :   0.8849

Dispersion correction           -0.002017662
FINAL SINGLE POINT ENERGY      -226.173494046829

DIPOLE MOMENT
-------------

Method             : SCF
Type of density    : Electron Density
Multiplicity       :   1
Irrep              :   0
Energy             :  -226.1798472630861170 Eh
Relativity type    :
Basis              : AO
                                X                 Y                 Z
Electronic contribution:     -0.253362273      -0.662387321       0.000135369
Nuclear contribution   :     -1.797860677       0.658350943      -0.000323499
                        -----------------------------------------
Total Dipole Moment    :     -2.051222950      -0.004036378      -0.000188130
                        -----------------------------------------
Magnitude (a.u.)       :      2.051226930
Magnitude (Debye)      :      5.213804508

Rotational constants in cm-1:             0.332226             0.316826             0.162172
Rotational constants in MHz :          9959.880514          9498.196788          4861.780725

                             ****ORCA TERMINATED NORMALLY****
TOTAL RUN TIME: 0 days 0 hours 0 minutes 14 seconds 883 msec
