                         Program Version 6.0.0  -   RELEASE  -
|  1> ! wb97x-v def2-tzvp def2/J RIJCOSX DEFGRID2 scfconv7 GCP(DFT/TZ) printgap
|  2> %output
|  3>     printlevel normal
|  4> end
|  5> * xyz 0 1
|  6> C 1.2862195186516632 -1.219949436200324 0.24105279472412397
|  7> C 0.48120262447125345 -0.09690089755818772 -0.4320138719112283
|  8> C 0.9086434427684897 1.2693653521723307 0.09405423274460965
|  9> C -0.9881837209752348 -0.3785336319072567 -0.28327848353459
| 10> C -1.8972406628219896 0.4014896911821266 0.3012439883532393
| 11> H 2.3595831241990455 -1.0771339191684393 0.0774268263931271
| 12> H 1.008909552123053 -2.2024607371808345 -0.15523335245041384
| 13> H 1.1020023207302552 -1.2248375536497147 1.3216902393671321
| 14> H 0.7057371201032762 -0.14003151531390806 -1.5088890233880892
| 15> H 0.366482693534585 2.0826462762641205 -0.39949977788036756
| 16> H 0.7310869635835233 1.3480115075611458 1.1729750074879812
| 17> H 1.9784151048282066 1.4214896030584494 -0.08077634912945827
| 18> H -1.3080848959888733 -1.340430510083287 -0.6882910952513561
| 19> H -2.935588841235856 0.08888598396670072 0.3734041984089917
| 20> H -1.644071183750745 1.3671890305572627 0.730829869178612
| 21> *
| 22>
| 23>                          ****END OF INPUT****

CARTESIAN COORDINATES (ANGSTROEM)
---------------------------------
  C      1.286220   -1.219949    0.241053
  C      0.481203   -0.096901   -0.432014
  C      0.908643    1.269365    0.094054
  C     -0.988184   -0.378534   -0.283278
  C     -1.897241    0.401490    0.301244
  H      2.359583   -1.077134    0.077427
  H      1.008910   -2.202461   -0.155233
  H      1.102002   -1.224838    1.321690
  H      0.705737   -0.140032   -1.508889
  H      0.366483    2.082646   -0.399500
  H      0.731087    1.348012    1.172975
  H      1.978415    1.421490   -0.080776
  H     -1.308085   -1.340431   -0.688291
  H     -2.935589    0.088886    0.373404
  H     -1.644071    1.367189    0.730830

 Total Charge           Charge          ....    0
 Multiplicity           Mult            ....    1
 Number of Electrons    NEL             ....   40
 Basis Dimension        Dim             ....  215

ORBITAL ENERGIES
----------------

  NO   OCC          E(Eh)            E(eV)
   0   2.0000     -12.054624      -328.0230
   1   2.0000     -12.047728      -327.8353
   2   2.0000     -12.036475      -327.5291
   3   2.0000     -12.035201      -327.4945
   4   2.0000     -12.033899      -327.4590
   5   2.0000      -1.328544       -36.1515
   6   2.0000      -1.251926       -34.0666
   7   2.0000      -1.177749       -32.0482
   8   2.0000      -1.099155       -29.9095
   9   2.0000      -0.996268       -27.1098
  10   2.0000      -0.913072       -24.8460
  11   2.0000      -0.896103       -24.3842
  12   2.0000      -0.875279       -23.8175
  13   2.0000      -0.833655       -22.6849
  14   2.0000      -0.814518       -22.1642
  15   2.0000      -0.808152       -21.9909
  16   2.0000      -0.783083       -21.3088
  17   2.0000      -0.769579       -20.9413
  18   2.0000      -0.761410       -20.7190
  19   2.0000      -0.646996       -17.6057
  20   0.0000      -0.192391        -5.2352
  21   0.0000      -0.025323        -0.6891
  22   0.0000      -0.012875        -0.3503
  23   0.0000      -0.006616        -0.1800
  24   0.0000       0.000856         0.0233

MULLIKEN ATOMIC CHARGES
-----------------------
   0 C :   -0.350616
   1 C :    0.070061
   2 C :   -0.385134
   3 C :   -0.158369
   4 C :   -0.280760
   5 H :    0.110046
   6 H :    0.110595
   7 H :    0.111200
   8 H :    0.072915
   9 H :    0.124889
  10 H :    0.114139
  11 H :    0.114373
  12 H :    0.106431
  13 H :    0.118463
  14 H :    0.121767
Sum of atomic charges:    0.0000000

LOEWDIN ATOMIC CHARGES
----------------------
   0 C :   -0.274818
   1 C :   -0.301402
   2 C :   -0.279573
   3 C :   -0.178197
   4 C :   -0.215830
   5 H :    0.117491
   6 H :    0.117840
   7 H :    0.120906
   8 H :    0.153887
   9 H :    0.120700
  10 H :    0.120700
  11 H :    0.119741
  12 H :    0.140140
  13 H :    0.118640
  14 H :    0.119776

  Mayer bond orders larger than 0.100000
B(  0-C ,  1-C ) :   0.9590 B(  0-C ,  5-H ) :   0.9794 B(  0-C ,  6-H ) :   0.9815
B(  0-C ,  7-H ) :   0.9752 B(  1-C ,  2-C ) :   0.9720 B(  1-C ,  3-C ) :   0.9706
B(  1-C ,  8-H ) :   0.9602 B(  2-C ,  9-H ) :   0.9829 B(  2-C , 10-H ) :   0.9749
B(  2-C , 11-H ) :   0.9808 B(  3-C ,  4-C ) :   1.9655 B(  3-C , 12-H ) :   0.9636
B(  4-C , 13-H ) :   0.9709 B(  4-C , 14-H ) :   0.9671

FINAL SINGLE POINT ENERGY      -196.535744498784

DIPOLE MOMENT
-------------

Method             : SCF
Type of density    : Electron Density
Multiplicity       :   1
Irrep              :   0
Energy             :  -196.5454520126844784 Eh
Relativity type    :
Basis              : AO
                                X                 Y                 Z
Electronic contribution:     -2.081981964      -0.344953363      -0.872331900
Nuclear contribution   :      2.235844869       0.299152226       0.804559506
                        -----------------------------------------
Total Dipole Moment    :      0.153862904      -0.045801137      -0.067772394
                        -----------------------------------------
Magnitude (a.u.)       :      0.174254512
Magnitude (Debye)      :      0.442919770

Rotational constants in cm-1:             0.242448             0.131395             0.096698
Rotational constants in MHz :          7268.402709          3939.109213          2898.929509

                             ****ORCA TERMINATED NORMALLY****
TOTAL RUN TIME: 0 days 0 hours 1 minutes 11 seconds 358 msec
