                         Program Version 6.0.0  -   RELEASE  -
|  1> ! wb97x-v def2-tzvp def2/J RIJCOSX DEFGRID2 scfconv7 GCP(DFT/TZ) printgap
|  2> %output
|  3>     printlevel normal
|  4> end
|  5> %cpcm
|  6>     smd true
|  7>     smdsolvent "water"
|  8> end
|  9> * xyz 0 1
| 10> C 1.2862195186516632 -1.219949436200324 0.24105279472412397
| 11> C 0.48120262447125345 -0.09690089755818772 -0.4320138719112283
| 12> C 0.9086434427684897 1.2693653521723307 0.09405423274460965
| 13> C -0.9881837209752348 -0.3785336319072567 -0.28327848353459
| 14> C -1.8972406628219896 0.4014896911821266 0.3012439883532393
| 15> H 2.3595831241990455 -1.0771339191684393 0.0774268263931271
| 16> H 1.008909552123053 -2.2024607371808345 -0.15523335245041384
| 17> H 1.1020023207302552 -1.2248375536497147 1.3216902393671321
| 18> H 0.7057371201032762 -0.14003151531390806 -1.5088890233880892
| 19> H 0.366482693534585 2.0826462762641205 -0.39949977788036756
| 20> H 0.7310869635835233 1.3480115075611458 1.1729750074879812
| 21> H 1.9784151048282066 1.4214896030584494 -0.08077634912945827
| 22> H -1.3080848959888733 -1.340430510083287 -0.6882910952513561
| 23> H -2.935588841235856 0.08888598396670072 0.3734041984089917
| 24> H -1.644071183750745 1.3671890305572627 0.730829869178612
| 25> *
| 26>
| 27>                          ****END OF INPUT****

CARTESIAN COORDINATES (ANGSTROEM)
---------------------------------
  C      1.286220   -1.219949    0.241053
  C      0.481203   -0.096901   -0.432014
  C      0.908643    1.269365    0.094054
  C     -0.988184   -0.378534   -0.283278
  C     -1.897241    0.401490    0.301244
  H      2.359583   -1.077134    0.077427
  H      1.008910   -2.202461   -0.155233
  H      1.102002   -1.224838    1.321690
  H      0.705737   -0.140032   -1.508889
  H      0.366483    2.082646   -0.399500
  H      0.731087    1.348012    1.172975
  H      1.978415    1.421490   -0.080776
  H     -1.308085   -1.340431   -0.688291
  H     -2.935589    0.088886    0.373404
  H     -1.644071    1.367189    0.730830

 Total Charge           Charge          ....    0
 Multiplicity           Mult            ....    1
 Number of Electrons    NEL             ....   40
 Basis Dimension        Dim             ....  215

ORBITAL ENERGIES
----------------

  NO   OCC          E(Eh)            E(eV)
   0   2.0000     -12.046866      -327.8119
   1   2.0000     -12.044763      -327.7547
   2   2.0000     -12.031296      -327.3882
   3   2.0000     -12.027503      -327.2850
   4   2.0000     -12.024762      -327.2104
   5   2.0000      -1.323048       -36.0020
   6   2.0000      -1.247402       -33.9435
   7   2.0000      -1.169298       -31.8182
   8   2.0000      -1.092873       -29.7386
   9   2.0000      -0.990632       -26.9565
  10   2.0000      -0.907508       -24.6945
  11   2.0000      -0.890640       -24.2356
  12   2.0000      -0.867602       -23.6087
  13   2.0000      -0.826275       -22.4841
  14   2.0000      -0.807167       -21.9641
  15   2.0000      -0.799470       -21.7547
  16   2.0000      -0.774547       -21.0765
  17   2.0000      -0.762375       -20.7453
  18   2.0000      -0.754001       -20.5174
  19   2.0000      -0.645910       -17.5761
  20   0.0000      -0.191006        -5.1975
  21   0.0000      -0.016956        -0.4614
  22   0.0000      -0.005693        -0.1549
  23   0.0000       0.001959         0.0533
  24   0.0000       0.009829         0.2675

MULLIKEN ATOMIC CHARGES
-----------------------
   0 C :   -0.402362
   1 C :    0.080932
   2 C :   -0.420032
   3 C :   -0.211157
   4 C :   -0.367576
   5 H :    0.129195
   6 H :    0.130542
   7 H :    0.120299
   8 H :    0.089399
   9 H :    0.134222
  10 H :    0.124944
  11 H :    0.133398
  12 H :    0.144678
  13 H :    0.156084
  14 H :    0.157433
Sum of atomic charges:    0.0000000

LOEWDIN ATOMIC CHARGES
----------------------
   0 C :   -0.280194
   1 C :   -0.300580
   2 C :   -0.284262
   3 C :   -0.185249
   4 C :   -0.237172
   5 H :    0.121320
   6 H :    0.121470
   7 H :    0.121391
   8 H :    0.158814
   9 H :    0.122034
  10 H :    0.122556
  11 H :    0.123007
  12 H :    0.147453
  13 H :    0.123867
  14 H :    0.125544

  Mayer bond orders larger than 0.100000
B(  0-C ,  1-C ) :   0.9511 B(  0-C ,  5-H ) :   0.9771 B(  0-C ,  6-H ) :   0.9786
B(  0-C ,  7-H ) :   0.9730 B(  1-C ,  2-C ) :   0.9708 B(  1-C ,  3-C ) :   0.9646
B(  1-C ,  8-H ) :   0.9565 B(  2-C ,  9-H ) :   0.9799 B(  2-C , 10-H ) :   0.9707
B(  2-C , 11-H ) :   0.9783 B(  3-C ,  4-C ) :   1.9402 B(  3-C , 12-H ) :   0.9632
B(  4-C , 13-H ) :   0.9697 B(  4-C , 14-H ) :   0.9652

FINAL SINGLE POINT ENERGY      -196.533764430890

DIPOLE MOMENT
-------------

Method             : SCF
Type of density    : Electron Density
Multiplicity       :   1
Irrep              :   0
Energy             :  -196.5434719447903831 Eh
Relativity type    :
Basis              : AO
                                X                 Y                 Z
Electronic contribution:     -2.006456056      -0.378147393      -0.919025317
Nuclear contribution   :      2.235844869       0.299152226       0.804559506
                        -----------------------------------------
Total Dipole Moment    :      0.229388813      -0.078995167      -0.114465811
                        -----------------------------------------
Magnitude (a.u.)       :      0.268257126
Magnitude (Debye)      :      0.681855426

Rotational constants in cm-1:             0.242448             0.131395             0.096698
Rotational constants in MHz :          7268.402709          3939.109213          2898.929509

                             ****ORCA TERMINATED NORMALLY****
TOTAL RUN TIME: 0 days 0 hours 1 minutes 10 seconds 956 msec
