                         Program Version 6.0.0  -   RELEASE  -
|  1> ! pbe def2-sv(p) def2/J RI DEFGRID1 loosescf d4 GCP(DFT/SV(P)) printgap
|  2> %output
|  3>     printlevel normal
|  4> end
|  5> * xyz 0 1
|  6> C -2.2369305496 0.2710320125 2.08515e-05
|  7> C -1.776302227 -1.038149297 -2.58676e-05
|  8> C -0.4189058904 -1.2934149124 -4.39223e-05
|  9> C 0.4903390965 -0.2327083369 1.85597e-05
| 10> C 0.0174144116 1.083115651 -7.65351e-05
| 11> C -1.3405089339 1.3306933101 3.69912e-05
| 12> C 1.9232570848 -0.4959093389 1.9022e-05
| 13> O 2.7985266939 0.3469103662 2.57153e-05
| 14> H -3.2981370759 0.4662405844 -0.0001167877
| 15> H -2.4790107638 -1.8566655245 0.0005283945
| 16> H -0.0509721165 -2.3084242543 -0.0002249508
| 17> H 0.7380128857 1.8874110626 -0.000256378
| 18> H -1.7037506886 2.3464813051 0.0001991934
| 19> H 2.1911644162 -1.5690710735 6.8877e-05
| 20> *
| 21>
| 22>                          ****END OF INPUT****

CARTESIAN COORDINATES (ANGSTROEM)
---------------------------------
  C     -2.236931    0.271032    0.000021
  C     -1.776302   -1.038149   -0.000026
  C     -0.418906   -1.293415   -0.000044
  C      0.490339   -0.232708    0.000019
  C      0.017414    1.083116   -0.000077
  C     -1.340509    1.330693    0.000037
  C      1.923257   -0.495909    0.000019
  O      2.798527    0.346910    0.000026
  H     -3.298137    0.466241   -0.000117
  H     -2.479011   -1.856666    0.000528
  H     -0.050972   -2.308424   -0.000225
  H      0.738013    1.887411   -0.000256
  H     -1.703751    2.346481    0.000199
  H      2.191164   -1.569071    0.000069

 Total Charge           Charge          ....    0
 Multiplicity           Mult            ....    1
 Number of Electrons    NEL             ....   56
 Basis Dimension        Dim             ....  124

ORBITAL ENERGIES
----------------

  NO   OCC          E(Eh)            E(eV)
   0   2.0000     -18.746343      -510.1139
   1   2.0000      -9.969155      -271.2745
   2   2.0000      -9.915131      -269.8044
   3   2.0000      -9.915108      -269.8038
   4   2.0000      -9.912786      -269.7406
   5   2.0000      -9.911201      -269.6975
   6   2.0000      -9.910916      -269.6897
   7   2.0000      -9.910753      -269.6853
   8   2.0000      -0.938950       -25.5501
   9   2.0000      -0.795225       -21.6392
  10   2.0000      -0.701962       -19.1013
  11   2.0000      -0.689186       -18.7537
  12   2.0000      -0.591537       -16.0965
  13   2.0000      -0.561301       -15.2738
  14   2.0000      -0.518505       -14.1092
  15   2.0000      -0.475662       -12.9434
  16   2.0000      -0.436617       -11.8810
  17   2.0000      -0.415091       -11.2952
  18   2.0000      -0.397219       -10.8089
  19   2.0000      -0.392524       -10.6811
  20   2.0000      -0.372467       -10.1353
  21   2.0000      -0.370105       -10.0711
  22   2.0000      -0.333432        -9.0731
  23   2.0000      -0.329137        -8.9563
  24   2.0000      -0.315454        -8.5839
  25   2.0000      -0.250293        -6.8108
  26   2.0000      -0.246323        -6.7028
  27   2.0000      -0.206739        -5.6256
  28   0.0000      -0.098596        -2.6829
  29   0.0000      -0.052145        -1.4189
  30   0.0000      -0.001340        -0.0365
  31   0.0000       0.036041         0.9807
  32   0.0000       0.059783         1.6268

MULLIKEN ATOMIC CHARGES
-----------------------
   0 C :   -0.039294
   1 C :   -0.042902
   2 C :   -0.095370
   3 C :    0.082691
   4 C :   -0.086751
   5 C :   -0.043316
   6 C :    0.035147
   7 O :   -0.161117
   8 H :    0.066298
   9 H :    0.062136
  10 H :    0.055746
  11 H :    0.065672
  12 H :    0.064742
  13 H :    0.036317
Sum of atomic charges:   -0.0000000

LOEWDIN ATOMIC CHARGES
----------------------
   0 C :   -0.100499
   1 C :   -0.119624
   2 C :   -0.095709
   3 C :   -0.095072
   4 C :   -0.079435
   5 C :   -0.116721
   6 C :    0.003666
   7 O :   -0.125079
   8 H :    0.128791
   9 H :    0.128292
  10 H :    0.127864
  11 H :    0.134675
  12 H :    0.129085
  13 H :    0.079765

  Mayer bond orders larger than 0.100000
B(  0-C ,  1-C ) :   1.3783 B(  0-C ,  5-C ) :   1.3563 B(  0-C ,  8-H ) :   0.9639
B(  1-C ,  2-C ) :   1.3787 B(  1-C ,  9-H ) :   0.9645 B(  2-C ,  3-C ) :   1.3239
B(  2-C , 10-H ) :   0.9594 B(  3-C ,  4-C ) :   1.3453 B(  3-C ,  6-C ) :   0.9931
B(  4-C ,  5-C ) :   1.3761 B(  4-C , 11-H ) :   0.9599 B(  5-C , 12-H ) :   0.9677
B(  6-C ,  7-O ) :   2.1418 B(  6-C , 13-H ) :   0.9173

Dispersion correction           -0.014087949
FINAL SINGLE POINT ENERGY      -344.843898706494

DIPOLE MOMENT
-------------

Method             : SCF
Type of density    : Electron Density
Multiplicity       :   1
Irrep              :   0
Energy             :  -344.8812995133131380 Eh
Relativity type    :
Basis              : AO
                                X                 Y                 Z
Electronic contribution:      3.080563359       0.587628554      -0.000143347
Nuclear contribution   :     -4.276628399      -0.964954029       0.000186467
                        -----------------------------------------
Total Dipole Moment    :     -1.196065040      -0.377325474       0.000043120
                        -----------------------------------------
Magnitude (a.u.)       :      1.254171478
Magnitude (Debye)      :      3.187850555

Rotational constants in cm-1:             0.176525             0.052715             0.040593
Rotational constants in MHz :          5292.085160          1580.367258          1216.951043

                             ****ORCA TERMINATED NORMALLY****
TOTAL RUN TIME: 0 days 0 hours 0 minutes 7 seconds 342 msec
