                         Program Version 6.0.0  -   RELEASE  -
|  1> ! pbe def2-sv(p) def2/J RI DEFGRID1 loosescf d4 GCP(DFT/SV(P)) printgap
|  2> %output
|  3>     printlevel normal
|  4> end
|  5> * xyz 0 1
|  6> C -3.1086339172 0.3031699549 0.6097823349
|  7> C -1.5884738911 0.3589408326 0.4539628223
|  8> H -1.1411869536 0.3877435532 1.4561252656
|  9> C -1.1226437117 1.5856706336 -0.3245639691
| 10> C 0.4004899397 1.6693822281 -0.3319206521
| 11> C 1.0694693132 0.3523790257 -0.8013417933
| 12> H 1.6562793877 0.5588801831 -1.7019704865
| 13> C 0.0338082436 -0.7112672692 -1.1874339657
| 14> C -1.0662495055 -0.9083796108 -0.1848630278
| 15> O -1.5272657932 -2.0071203601 0.0688896683
| 16> C 2.041000564 -0.1252335252 0.2556909446
| 17> C 1.7659410663 -1.0632010033 1.1472792146
| 18> C 3.3629847287 0.5830474864 0.2349854703
| 19> H -3.3975110199 -0.6272523546 1.0927947689
| 20> H -3.4598402348 1.1381041512 1.2091685709
| 21> H -3.5882674654 0.3451376694 -0.3656847821
| 22> H -1.5097285582 1.5405995245 -1.3437989121
| 23> H -1.5292663571 2.4839578596 0.1423409497
| 24> H 0.7109926013 2.4953674926 -0.9718454712
| 25> H 0.7353111545 1.8943538165 0.6827850412
| 26> H -0.4622115506 -0.3983183279 -2.1105132729
| 27> H 0.5209673678 -1.6680979783 -1.3826341913
| 28> H 2.4840510118 -1.3535425789 1.8959172768
| 29> H 0.8285843633 -1.5914418863 1.1752600316
| 30> H 3.9015814111 0.3346013414 -0.6785272656
| 31> H 3.2173637797 1.6613196597 0.2511173811
| 32> H 3.973011779 0.2954892123 1.0863048054
| 33> *
| 34>
| 35>                          ****END OF INPUT****

CARTESIAN COORDINATES (ANGSTROEM)
---------------------------------
  C     -3.108634    0.303170    0.609782
  C     -1.588474    0.358941    0.453963
  H     -1.141187    0.387744    1.456125
  C     -1.122644    1.585671   -0.324564
  C      0.400490    1.669382   -0.331921
  C      1.069469    0.352379   -0.801342
  H      1.656279    0.558880   -1.701970
  C      0.033808   -0.711267   -1.187434
  C     -1.066250   -0.908380   -0.184863
  O     -1.527266   -2.007120    0.068890
  C      2.041001   -0.125234    0.255691
  C      1.765941   -1.063201    1.147279
  C      3.362985    0.583047    0.234985
  H     -3.397511   -0.627252    1.092795
  H     -3.459840    1.138104    1.209169
  H     -3.588267    0.345138   -0.365685
  H     -1.509729    1.540600   -1.343799
  H     -1.529266    2.483958    0.142341
  H      0.710993    2.495367   -0.971845
  H      0.735311    1.894354    0.682785
  H     -0.462212   -0.398318   -2.110513
  H      0.520967   -1.668098   -1.382634
  H      2.484051   -1.353543    1.895917
  H      0.828584   -1.591442    1.175260
  H      3.901581    0.334601   -0.678527
  H      3.217364    1.661320    0.251117
  H      3.973012    0.295489    1.086305

 Total Charge           Charge          ....    0
 Multiplicity           Mult            ....    1
 Number of Electrons    NEL             ....   84
 Basis Dimension        Dim             ....  186

ORBITAL ENERGIES
----------------

  NO   OCC          E(Eh)            E(eV)
   0   2.0000     -18.733249      -509.7576
   1   2.0000      -9.968163      -271.2475
   2   2.0000      -9.910087      -269.6672
   3   2.0000      -9.902925      -269.4723
   4   2.0000      -9.901393      -269.4306
   5   2.0000      -9.896174      -269.2886
   6   2.0000      -9.895794      -269.2783
   7   2.0000      -9.892093      -269.1775
   8   2.0000      -9.883436      -268.9420
   9   2.0000      -9.876370      -268.7497
  10   2.0000      -9.869867      -268.5727
  11   2.0000      -0.930373       -25.3167
  12   2.0000      -0.773636       -21.0517
  13   2.0000      -0.728393       -19.8206
  14   2.0000      -0.682915       -18.5831
  15   2.0000      -0.661971       -18.0132
  16   2.0000      -0.614941       -16.7334
  17   2.0000      -0.608430       -16.5562
  18   2.0000      -0.556707       -15.1488
  19   2.0000      -0.532486       -14.4897
  20   2.0000      -0.473815       -12.8932
  21   2.0000      -0.467415       -12.7190
  22   2.0000      -0.439631       -11.9630
  23   2.0000      -0.425375       -11.5750
  24   2.0000      -0.413141       -11.2421
  25   2.0000      -0.396041       -10.7768
  26   2.0000      -0.380030       -10.3411
  27   2.0000      -0.377848       -10.2818
  28   2.0000      -0.375803       -10.2261
  29   2.0000      -0.362783        -9.8718
  30   2.0000      -0.350272        -9.5314
  31   2.0000      -0.345603        -9.4043
  32   2.0000      -0.333563        -9.0767
  33   2.0000      -0.330755        -9.0003
  34   2.0000      -0.322334        -8.7712
  35   2.0000      -0.313853        -8.5404
  36   2.0000      -0.300940        -8.1890
  37   2.0000      -0.292909        -7.9705
  38   2.0000      -0.278167        -7.5693
  39   2.0000      -0.272244        -7.4081
  40   2.0000      -0.220588        -6.0025
  41   2.0000      -0.189635        -5.1602
  42   0.0000      -0.051737        -1.4078
  43   0.0000      -0.013756        -0.3743
  44   0.0000       0.021924         0.5966
  45   0.0000       0.046851         1.2749
  46   0.0000       0.056519         1.5380

MULLIKEN ATOMIC CHARGES
-----------------------
   0 C :   -0.211004
   1 C :   -0.193680
   2 H :    0.097126
   3 C :   -0.113213
   4 C :   -0.091604
   5 C :   -0.147875
   6 H :    0.065863
   7 C :   -0.035820
   8 C :   -0.027253
   9 O :   -0.172296
  10 C :   -0.081007
  11 C :   -0.251569
  12 C :   -0.211062
  13 H :    0.120590
  14 H :    0.097493
  15 H :    0.093501
  16 H :    0.074873
  17 H :    0.087475
  18 H :    0.084714
  19 H :    0.090707
  20 H :    0.102294
  21 H :    0.097073
  22 H :    0.081995
  23 H :    0.123273
  24 H :    0.111193
  25 H :    0.107368
  26 H :    0.100847
Sum of atomic charges:   -0.0000000

LOEWDIN ATOMIC CHARGES
----------------------
   0 C :   -0.322572
   1 C :   -0.177659
   2 H :    0.143024
   3 C :   -0.216395
   4 C :   -0.212300
   5 C :   -0.130068
   6 H :    0.124316
   7 C :   -0.235217
   8 C :    0.049949
   9 O :   -0.133378
  10 C :   -0.053501
  11 C :   -0.272447
  12 C :   -0.322611
  13 H :    0.128322
  14 H :    0.118920
  15 H :    0.119304
  16 H :    0.115916
  17 H :    0.122511
  18 H :    0.120665
  19 H :    0.123162
  20 H :    0.146136
  21 H :    0.135891
  22 H :    0.120104
  23 H :    0.126472
  24 H :    0.130333
  25 H :    0.126278
  26 H :    0.124844

  Mayer bond orders larger than 0.100000
B(  0-C ,  1-C ) :   1.1218 B(  0-C , 13-H ) :   0.9379 B(  0-C , 14-H ) :   0.9486
B(  0-C , 15-H ) :   0.9506 B(  1-C ,  2-H ) :   0.8498 B(  1-C ,  3-C ) :   1.1101
B(  1-C ,  8-C ) :   0.9263 B(  3-C ,  4-C ) :   1.1839 B(  3-C , 16-H ) :   0.8892
B(  3-C , 17-H ) :   0.9110 B(  4-C ,  5-C ) :   1.0370 B(  4-C , 18-H ) :   0.9076
B(  4-C , 19-H ) :   0.9081 B(  5-C ,  6-H ) :   0.8738 B(  5-C ,  7-C ) :   1.1187
B(  5-C , 10-C ) :   0.9975 B(  7-C ,  8-C ) :   1.0672 B(  7-C , 20-H ) :   0.8529
B(  7-C , 21-H ) :   0.8909 B(  8-C ,  9-O ) :   2.1427 B( 10-C , 11-C ) :   2.0480
B( 10-C , 12-C ) :   1.1199 B( 11-C , 22-H ) :   0.9016 B( 11-C , 23-H ) :   0.8866
B( 12-C , 24-H ) :   0.9283 B( 12-C , 25-H ) :   0.9308 B( 12-C , 26-H ) :   0.9420

Dispersion correction           -0.029267053
FINAL SINGLE POINT ENERGY      -464.824237661641

DIPOLE MOMENT
-------------

Method             : SCF
Type of density    : Electron Density
Multiplicity       :   1
Irrep              :   0
Energy             :  -464.9101209261558552 Eh
Relativity type    :
Basis              : AO
                                X                 Y                 Z
Electronic contribution:     -2.277210418      -5.892268685      -0.707799539
Nuclear contribution   :      2.735684796       7.003578896       0.410849951
                        -----------------------------------------
Total Dipole Moment    :      0.458474378       1.111310211      -0.296949588
                        -----------------------------------------
Magnitude (a.u.)       :      1.238300528
Magnitude (Debye)      :      3.147509806

Rotational constants in cm-1:             0.062164             0.027077             0.022560
Rotational constants in MHz :          1863.618954           811.750894           676.320601

                             ****ORCA TERMINATED NORMALLY****
TOTAL RUN TIME: 0 days 0 hours 0 minutes 14 seconds 863 msec
