                         Program Version 6.0.0  -   RELEASE  -
|  1> ! pbe def2-sv(p) def2/J RI DEFGRID1 loosescf d4 GCP(DFT/SV(P)) printgap
|  2> %output
|  3>     printlevel normal
|  4> end
|  5> * xyz 0 1
|  6> C 1.9938715051 -0.8003147148 -0.3601748357
|  7> O 1.1371950585 0.3362196125 -0.4086863669
|  8> S -0.3691384411 0.0530903688 0.0907646204
|  9> O -0.3186924643 -0.3460527187 1.4801593777
| 10> O -0.9663577757 -0.9202442838 -0.7970139687
| 11> C -1.0677265641 1.6727166925 -0.1195577568
| 12> H 2.043286235 -1.1693354564 0.6653627296
| 13> H 2.9694781494 -0.4657765089 -0.7028422027
| 14> H 1.5947441737 -1.5803108796 -1.010382292
| 15> H -0.2601064894 2.2979749499 -0.4729357089
| 16> H -1.8606065928 1.5956219955 -0.8500762971
| 17> H -1.4327883166 2.0007171211 0.8434148065
| 18> *
| 19>
| 20>                          ****END OF INPUT****

CARTESIAN COORDINATES (ANGSTROEM)
---------------------------------
  C      1.993872   -0.800315   -0.360175
  O      1.137195    0.336220   -0.408686
  S     -0.369138    0.053090    0.090765
  O     -0.318692   -0.346053    1.480159
  O     -0.966358   -0.920244   -0.797014
  C     -1.067727    1.672717   -0.119558
  H      2.043286   -1.169335    0.665363
  H      2.969478   -0.465777   -0.702842
  H      1.594744   -1.580311   -1.010382
  H     -0.260106    2.297975   -0.472936
  H     -1.860607    1.595622   -0.850076
  H     -1.432788    2.000717    0.843415

 Total Charge           Charge          ....    0
 Multiplicity           Mult            ....    1
 Number of Electrons    NEL             ....   58
 Basis Dimension        Dim             ....  100

ORBITAL ENERGIES
----------------

  NO   OCC          E(Eh)            E(eV)
   0   2.0000     -88.251204     -2401.4374
   1   2.0000     -18.802687      -511.6471
   2   2.0000     -18.739008      -509.9143
   3   2.0000     -18.738834      -509.9096
   4   2.0000      -9.948502      -270.7125
   5   2.0000      -9.933456      -270.3031
   6   2.0000      -7.865951      -214.0434
   7   2.0000      -5.894481      -160.3970
   8   2.0000      -5.890992      -160.3020
   9   2.0000      -5.890313      -160.2836
  10   2.0000      -1.051011       -28.5995
  11   2.0000      -0.945576       -25.7304
  12   2.0000      -0.901916       -24.5424
  13   2.0000      -0.728426       -19.8215
  14   2.0000      -0.653148       -17.7731
  15   2.0000      -0.541583       -14.7372
  16   2.0000      -0.488482       -13.2923
  17   2.0000      -0.451231       -12.2786
  18   2.0000      -0.437256       -11.8984
  19   2.0000      -0.420840       -11.4516
  20   2.0000      -0.410693       -11.1755
  21   2.0000      -0.393617       -10.7109
  22   2.0000      -0.377249       -10.2655
  23   2.0000      -0.348388        -9.4801
  24   2.0000      -0.288830        -7.8595
  25   2.0000      -0.286398        -7.7933
  26   2.0000      -0.274143        -7.4598
  27   2.0000      -0.258676        -7.0389
  28   2.0000      -0.232033        -6.3139
  29   0.0000       0.011594         0.3155
  30   0.0000       0.031455         0.8559
  31   0.0000       0.046835         1.2744
  32   0.0000       0.047821         1.3013
  33   0.0000       0.060924         1.6578

MULLIKEN ATOMIC CHARGES
-----------------------
   0 C :   -0.122143
   1 O :   -0.409314
   2 S :    0.788772
   3 O :   -0.414801
   4 O :   -0.414912
   5 C :   -0.330785
   6 H :    0.128634
   7 H :    0.135211
   8 H :    0.128367
   9 H :    0.170889
  10 H :    0.169820
  11 H :    0.170262
Sum of atomic charges:   -0.0000000

LOEWDIN ATOMIC CHARGES
----------------------
   0 C :   -0.228541
   1 O :   -0.302675
   2 S :    1.126464
   3 O :   -0.474743
   4 O :   -0.474833
   5 C :   -0.468339
   6 H :    0.117697
   7 H :    0.128021
   8 H :    0.117685
   9 H :    0.153407
  10 H :    0.152820
  11 H :    0.153037

  Mayer bond orders larger than 0.100000
B(  0-C ,  1-O ) :   0.9197 B(  0-C ,  6-H ) :   0.9462 B(  0-C ,  7-H ) :   0.9574
B(  0-C ,  8-H ) :   0.9470 B(  1-O ,  2-S ) :   0.9543 B(  2-S ,  3-O ) :   1.7569
B(  2-S ,  4-O ) :   1.7581 B(  2-S ,  5-C ) :   0.9066 B(  5-C ,  9-H ) :   0.9269
B(  5-C , 10-H ) :   0.9297 B(  5-C , 11-H ) :   0.9299

Dispersion correction           -0.010040725
FINAL SINGLE POINT ENERGY      -702.673989432510

DIPOLE MOMENT
-------------

Method             : SCF
Type of density    : Electron Density
Multiplicity       :   1
Irrep              :   0
Energy             :  -702.7244565931041507 Eh
Relativity type    :
Basis              : AO
                                X                 Y                 Z
Electronic contribution:     -2.414311470      -1.454660618       1.042311247
Nuclear contribution   :      2.873581647       2.497954227      -1.431555390
                        -----------------------------------------
Total Dipole Moment    :      0.459270177       1.043293609      -0.389244143
                        -----------------------------------------
Magnitude (a.u.)       :      1.204533791
Magnitude (Debye)      :      3.061681581

Rotational constants in cm-1:             0.152207             0.087561             0.083501
Rotational constants in MHz :          4563.057191          2625.025125          2503.304808

                             ****ORCA TERMINATED NORMALLY****
TOTAL RUN TIME: 0 days 0 hours 0 minutes 5 seconds 634 msec
