                         Program Version 6.0.0  -   RELEASE  -
|  1> ! r2scan-3c def2/J RI DEFGRID2 scfconv6 printgap
|  2> %output
|  3>     printlevel normal
|  4> end
|  5> * xyz 0 1
|  6> C -2.399292259 -7.12441e-05 -0.5365781951
|  7> C -1.3777596751 1.31707e-05 0.5997889461
|  8> C -0.4955286656 -1.2523084411 0.5809066864
|  9> C 0.4954560184 -1.252452831 -0.5805426735
| 10> C 1.377497854 1.20357e-05 -0.5998647538
| 11> C 0.4955325353 1.2525339513 -0.5804422699
| 12> C -0.4956420298 1.2524108384 0.5808654503
| 13> C 2.3996725257 -0.0001225046 0.5359140332
| 14> H -3.0332837286 -0.881594841 -0.4707921548
| 15> H -3.0323541675 0.882200874 -0.4719000006
| 16> H -1.9155889126 -0.0009435597 -1.5085429874
| 17> H -1.9410825674 3.45867e-05 1.5416589469
| 18> H 0.0529658133 -1.3113390076 1.5228575167
| 19> H -1.1266469345 -2.1415269864 0.5152767364
| 20> H 1.1267297659 -2.1415361774 -0.5146201542
| 21> H -0.0530397009 -1.3118972671 -1.5224576722
| 22> H 1.9402948693 3.49761e-05 -1.5420482368
| 23> H 1.1268922093 2.1415468362 -0.5142579136
| 24> H -0.0528204361 1.3122069839 -1.522426209
| 25> H 0.052712134 1.3115938598 1.5228924749
| 26> H -1.1268504288 2.1415535137 0.5150219876
| 27> H 3.0334452057 -0.8818346217 0.4698685022
| 28> H 1.9164945422 -0.0007363942 1.5082283755
| 29> H 3.0328913951 0.8820587658 0.470678031
| 30> *
| 31>
| 32>                          ****END OF INPUT****

CARTESIAN COORDINATES (ANGSTROEM)
---------------------------------
  C     -2.399292   -0.000071   -0.536578
  C     -1.377760    0.000013    0.599789
  C     -0.495529   -1.252308    0.580907
  C      0.495456   -1.252453   -0.580543
  C      1.377498    0.000012   -0.599865
  C      0.495533    1.252534   -0.580442
  C     -0.495642    1.252411    0.580865
  C      2.399673   -0.000123    0.535914
  H     -3.033284   -0.881595   -0.470792
  H     -3.032354    0.882201   -0.471900
  H     -1.915589   -0.000944   -1.508543
  H     -1.941083    0.000035    1.541659
  H      0.052966   -1.311339    1.522858
  H     -1.126647   -2.141527    0.515277
  H      1.126730   -2.141536   -0.514620
  H     -0.053040   -1.311897   -1.522458
  H      1.940295    0.000035   -1.542048
  H      1.126892    2.141547   -0.514258
  H     -0.052820    1.312207   -1.522426
  H      0.052712    1.311594    1.522892
  H     -1.126850    2.141554    0.515022
  H      3.033445   -0.881835    0.469869
  H      1.916495   -0.000736    1.508228
  H      3.032891    0.882059    0.470678

 Total Charge           Charge          ....    0
 Multiplicity           Mult            ....    1
 Number of Electrons    NEL             ....   64
 Basis Dimension        Dim             ....  232

ORBITAL ENERGIES
----------------

  NO   OCC          E(Eh)            E(eV)
   0   2.0000     -10.026944      -272.8470
   1   2.0000     -10.026943      -272.8470
   2   2.0000     -10.017407      -272.5875
   3   2.0000     -10.017402      -272.5874
   4   2.0000     -10.017271      -272.5838
   5   2.0000     -10.017262      -272.5836
   6   2.0000     -10.011607      -272.4297
   7   2.0000     -10.011591      -272.4292
   8   2.0000      -0.803455       -21.8631
   9   2.0000      -0.739444       -20.1213
  10   2.0000      -0.703964       -19.1558
  11   2.0000      -0.661947       -18.0125
  12   2.0000      -0.626873       -17.0581
  13   2.0000      -0.571650       -15.5554
  14   2.0000      -0.542349       -14.7581
  15   2.0000      -0.476098       -12.9553
  16   2.0000      -0.452869       -12.3232
  17   2.0000      -0.424277       -11.5452
  18   2.0000      -0.420672       -11.4471
  19   2.0000      -0.387263       -10.5380
  20   2.0000      -0.385909       -10.5011
  21   2.0000      -0.372398       -10.1335
  22   2.0000      -0.351587        -9.5672
  23   2.0000      -0.339420        -9.2361
  24   2.0000      -0.339410        -9.2358
  25   2.0000      -0.324012        -8.8168
  26   2.0000      -0.312093        -8.4925
  27   2.0000      -0.298688        -8.1277
  28   2.0000      -0.294112        -8.0032
  29   2.0000      -0.271800        -7.3960
  30   2.0000      -0.257111        -6.9963
  31   2.0000      -0.256474        -6.9790
  32   0.0000       0.072476         1.9722
  33   0.0000       0.098844         2.6897
  34   0.0000       0.115219         3.1353
  35   0.0000       0.120421         3.2768
  36   0.0000       0.122532         3.3343

MULLIKEN ATOMIC CHARGES
-----------------------
   0 C :   -0.533347
   1 C :    0.044375
   2 C :   -0.359696
   3 C :   -0.359663
   4 C :    0.044327
   5 C :   -0.359667
   6 C :   -0.359698
   7 C :   -0.533346
   8 H :    0.147552
   9 H :    0.147544
  10 H :    0.154478
  11 H :    0.150719
  12 H :    0.156770
  13 H :    0.147270
  14 H :    0.147261
  15 H :    0.156775
  16 H :    0.150711
  17 H :    0.147257
  18 H :    0.156785
  19 H :    0.156773
  20 H :    0.147271
  21 H :    0.147542
  22 H :    0.154471
  23 H :    0.147535
Sum of atomic charges:    0.0000000

LOEWDIN ATOMIC CHARGES
----------------------
   0 C :   -0.416049
   1 C :   -0.234780
   2 C :   -0.297121
   3 C :   -0.297123
   4 C :   -0.234787
   5 C :   -0.297120
   6 C :   -0.297124
   7 C :   -0.416060
   8 H :    0.154139
   9 H :    0.154136
  10 H :    0.151001
  11 H :    0.156662
  12 H :    0.157071
  13 H :    0.157498
  14 H :    0.157504
  15 H :    0.157067
  16 H :    0.156661
  17 H :    0.157501
  18 H :    0.157073
  19 H :    0.157073
  20 H :    0.157494
  21 H :    0.154139
  22 H :    0.151009
  23 H :    0.154137

  Mayer bond orders larger than 0.100000
B(  0-C ,  1-C ) :   0.9070 B(  0-C ,  8-H ) :   0.9732 B(  0-C ,  9-H ) :   0.9732
B(  0-C , 10-H ) :   0.9830 B(  1-C ,  2-C ) :   0.9092 B(  1-C ,  6-C ) :   0.9092
B(  1-C , 11-H ) :   0.9423 B(  2-C ,  3-C ) :   0.8914 B(  2-C , 12-H ) :   0.9864
B(  2-C , 13-H ) :   0.9524 B(  3-C ,  4-C ) :   0.9092 B(  3-C , 14-H ) :   0.9524
B(  3-C , 15-H ) :   0.9864 B(  4-C ,  5-C ) :   0.9092 B(  4-C ,  7-C ) :   0.9070
B(  4-C , 16-H ) :   0.9423 B(  5-C ,  6-C ) :   0.8914 B(  5-C , 17-H ) :   0.9524
B(  5-C , 18-H ) :   0.9863 B(  6-C , 19-H ) :   0.9864 B(  6-C , 20-H ) :   0.9524
B(  7-C , 21-H ) :   0.9732 B(  7-C , 22-H ) :   0.9830 B(  7-C , 23-H ) :   0.9732

Dispersion correction           -0.007756941
FINAL SINGLE POINT ENERGY      -314.390992852407

DIPOLE MOMENT
-------------

Method             : SCF
Type of density    : Electron Density
Multiplicity       :   1
Irrep              :   0
Energy             :  -314.3940395550561107 Eh
Relativity type    :
Basis              : AO
                                X                 Y                 Z
Electronic contribution:     -0.000767070       0.000133136       0.000457377
Nuclear contribution   :      0.000712120      -0.000167423      -0.000527958
                        -----------------------------------------
Total Dipole Moment    :     -0.000054950      -0.000034288      -0.000070582
                        -----------------------------------------
Magnitude (a.u.)       :      0.000095796
Magnitude (Debye)      :      0.000243494

Rotational constants in cm-1:             0.107810             0.055207             0.047242
Rotational constants in MHz :          3232.068708          1655.076136          1416.267224

                             ****ORCA TERMINATED NORMALLY****
TOTAL RUN TIME: 0 days 0 hours 0 minutes 23 seconds 756 msec
