                         Program Version 6.0.0  -   RELEASE  -
|  1> ! r2scan-3c def2/J RI DEFGRID2 scfconv6 printgap
|  2> %output
|  3>     printlevel normal
|  4> end
|  5> %cpcm
|  6>     smd true
|  7>     smdsolvent "water"
|  8> end
|  9> * xyz 0 1
| 10> C -2.399292259 -7.12441e-05 -0.5365781951
| 11> C -1.3777596751 1.31707e-05 0.5997889461
| 12> C -0.4955286656 -1.2523084411 0.5809066864
| 13> C 0.4954560184 -1.252452831 -0.5805426735
| 14> C 1.377497854 1.20357e-05 -0.5998647538
| 15> C 0.4955325353 1.2525339513 -0.5804422699
| 16> C -0.4956420298 1.2524108384 0.5808654503
| 17> C 2.3996725257 -0.0001225046 0.5359140332
| 18> H -3.0332837286 -0.881594841 -0.4707921548
| 19> H -3.0323541675 0.882200874 -0.4719000006
| 20> H -1.9155889126 -0.0009435597 -1.5085429874
| 21> H -1.9410825674 3.45867e-05 1.5416589469
| 22> H 0.0529658133 -1.3113390076 1.5228575167
| 23> H -1.1266469345 -2.1415269864 0.5152767364
| 24> H 1.1267297659 -2.1415361774 -0.5146201542
| 25> H -0.0530397009 -1.3118972671 -1.5224576722
| 26> H 1.9402948693 3.49761e-05 -1.5420482368
| 27> H 1.1268922093 2.1415468362 -0.5142579136
| 28> H -0.0528204361 1.3122069839 -1.522426209
| 29> H 0.052712134 1.3115938598 1.5228924749
| 30> H -1.1268504288 2.1415535137 0.5150219876
| 31> H 3.0334452057 -0.8818346217 0.4698685022
| 32> H 1.9164945422 -0.0007363942 1.5082283755
| 33> H 3.0328913951 0.8820587658 0.470678031
| 34> *
| 35>
| 36>                          ****END OF INPUT****

CARTESIAN COORDINATES (ANGSTROEM)
---------------------------------
  C     -2.399292   -0.000071   -0.536578
  C     -1.377760    0.000013    0.599789
  C     -0.495529   -1.252308    0.580907
  C      0.495456   -1.252453   -0.580543
  C      1.377498    0.000012   -0.599865
  C      0.495533    1.252534   -0.580442
  C     -0.495642    1.252411    0.580865
  C      2.399673   -0.000123    0.535914
  H     -3.033284   -0.881595   -0.470792
  H     -3.032354    0.882201   -0.471900
  H     -1.915589   -0.000944   -1.508543
  H     -1.941083    0.000035    1.541659
  H      0.052966   -1.311339    1.522858
  H     -1.126647   -2.141527    0.515277
  H      1.126730   -2.141536   -0.514620
  H     -0.053040   -1.311897   -1.522458
  H      1.940295    0.000035   -1.542048
  H      1.126892    2.141547   -0.514258
  H     -0.052820    1.312207   -1.522426
  H      0.052712    1.311594    1.522892
  H     -1.126850    2.141554    0.515022
  H      3.033445   -0.881835    0.469869
  H      1.916495   -0.000736    1.508228
  H      3.032891    0.882059    0.470678

 Total Charge           Charge          ....    0
 Multiplicity           Mult            ....    1
 Number of Electrons    NEL             ....   64
 Basis Dimension        Dim             ....  232

ORBITAL ENERGIES
----------------

  NO   OCC          E(Eh)            E(eV)
   0   2.0000     -10.019500      -272.6444
   1   2.0000     -10.019499      -272.6444
   2   2.0000     -10.009575      -272.3744
   3   2.0000     -10.009570      -272.3742
   4   2.0000     -10.009438      -272.3707
   5   2.0000     -10.009430      -272.3704
   6   2.0000     -10.003654      -272.2133
   7   2.0000     -10.003637      -272.2128
   8   2.0000      -0.795798       -21.6548
   9   2.0000      -0.731957       -19.9176
  10   2.0000      -0.696525       -18.9534
  11   2.0000      -0.654665       -17.8143
  12   2.0000      -0.619457       -16.8563
  13   2.0000      -0.564289       -15.3551
  14   2.0000      -0.535076       -14.5601
  15   2.0000      -0.468717       -12.7544
  16   2.0000      -0.445409       -12.1202
  17   2.0000      -0.416540       -11.3346
  18   2.0000      -0.412857       -11.2344
  19   2.0000      -0.379771       -10.3341
  20   2.0000      -0.378213       -10.2917
  21   2.0000      -0.364691        -9.9237
  22   2.0000      -0.343738        -9.3536
  23   2.0000      -0.331964        -9.0332
  24   2.0000      -0.331798        -9.0287
  25   2.0000      -0.316515        -8.6128
  26   2.0000      -0.304249        -8.2790
  27   2.0000      -0.291249        -7.9253
  28   2.0000      -0.286262        -7.7896
  29   2.0000      -0.263948        -7.1824
  30   2.0000      -0.249648        -6.7933
  31   2.0000      -0.248833        -6.7711
  32   0.0000       0.081035         2.2051
  33   0.0000       0.107525         2.9259
  34   0.0000       0.122897         3.3442
  35   0.0000       0.127646         3.4734
  36   0.0000       0.128527         3.4974

MULLIKEN ATOMIC CHARGES
-----------------------
   0 C :   -0.575508
   1 C :    0.051383
   2 C :   -0.374886
   3 C :   -0.374864
   4 C :    0.051370
   5 C :   -0.374856
   6 C :   -0.374871
   7 C :   -0.575529
   8 H :    0.157212
   9 H :    0.157208
  10 H :    0.168468
  11 H :    0.154656
  12 H :    0.164461
  13 H :    0.153717
  14 H :    0.153715
  15 H :    0.164466
  16 H :    0.154648
  17 H :    0.153712
  18 H :    0.164456
  19 H :    0.164448
  20 H :    0.153722
  21 H :    0.157208
  22 H :    0.168460
  23 H :    0.157202
Sum of atomic charges:    0.0000000

LOEWDIN ATOMIC CHARGES
----------------------
   0 C :   -0.424939
   1 C :   -0.233829
   2 C :   -0.300694
   3 C :   -0.300696
   4 C :   -0.233832
   5 C :   -0.300692
   6 C :   -0.300696
   7 C :   -0.424956
   8 H :    0.155907
   9 H :    0.155907
  10 H :    0.154865
  11 H :    0.157700
  12 H :    0.159323
  13 H :    0.158568
  14 H :    0.158577
  15 H :    0.159319
  16 H :    0.157699
  17 H :    0.158575
  18 H :    0.159319
  19 H :    0.159320
  20 H :    0.158567
  21 H :    0.155909
  22 H :    0.154872
  23 H :    0.155908

  Mayer bond orders larger than 0.100000
B(  0-C ,  1-C ) :   0.8988 B(  0-C ,  8-H ) :   0.9714 B(  0-C ,  9-H ) :   0.9714
B(  0-C , 10-H ) :   0.9794 B(  1-C ,  2-C ) :   0.9087 B(  1-C ,  6-C ) :   0.9088
B(  1-C , 11-H ) :   0.9422 B(  2-C ,  3-C ) :   0.8941 B(  2-C , 12-H ) :   0.9838
B(  2-C , 13-H ) :   0.9522 B(  3-C ,  4-C ) :   0.9087 B(  3-C , 14-H ) :   0.9522
B(  3-C , 15-H ) :   0.9838 B(  4-C ,  5-C ) :   0.9088 B(  4-C ,  7-C ) :   0.8988
B(  4-C , 16-H ) :   0.9423 B(  5-C ,  6-C ) :   0.8941 B(  5-C , 17-H ) :   0.9522
B(  5-C , 18-H ) :   0.9838 B(  6-C , 19-H ) :   0.9838 B(  6-C , 20-H ) :   0.9522
B(  7-C , 21-H ) :   0.9714 B(  7-C , 22-H ) :   0.9794 B(  7-C , 23-H ) :   0.9714

Dispersion correction           -0.007756941
FINAL SINGLE POINT ENERGY      -314.388277111057

DIPOLE MOMENT
-------------

Method             : SCF
Type of density    : Electron Density
Multiplicity       :   1
Irrep              :   0
Energy             :  -314.3913238137067765 Eh
Relativity type    :
Basis              : AO
                                X                 Y                 Z
Electronic contribution:     -0.000758928       0.000122398       0.000431141
Nuclear contribution   :      0.000712120      -0.000167423      -0.000527958
                        -----------------------------------------
Total Dipole Moment    :     -0.000046808      -0.000045025      -0.000096818
                        -----------------------------------------
Magnitude (a.u.)       :      0.000116584
Magnitude (Debye)      :      0.000296334

Rotational constants in cm-1:             0.107810             0.055207             0.047242
Rotational constants in MHz :          3232.068708          1655.076136          1416.267224

                             ****ORCA TERMINATED NORMALLY****
TOTAL RUN TIME: 0 days 0 hours 0 minutes 28 seconds 454 msec
