                         Program Version 6.0.0  -   RELEASE  -
|  1> ! pbe def2-sv(p) def2/J RI DEFGRID1 loosescf d4 GCP(DFT/SV(P)) printgap
|  2> %output
|  3>     printlevel normal
|  4> end
|  5> * xyz 0 1
|  6> C 3.7425321632 0.2684793486 0.0859946887
|  7> C 2.288242266 0.1574671429 -0.3630985655
|  8> H 2.2667883673 -0.1021393476 -1.4274629216
|  9> C 1.5401249885 1.471357416 -0.1635707433
| 10> C 0.0881135454 1.3465459646 -0.6138043458
| 11> C -0.6813102609 0.2512919933 0.1380236981
| 12> H -0.7108531603 0.5121887793 1.2027837597
| 13> C 0.0937186216 -1.0762559319 -0.0167775814
| 14> H 0.0573629527 -1.3791480572 -1.0705776399
| 15> C 1.5554678096 -0.9264416845 0.4194245309
| 16> O -0.4859595783 -2.1657857355 0.6794650771
| 17> C -2.1363160429 0.1346518628 -0.3764973302
| 18> C -3.0134155987 -0.6818937669 0.574924137
| 19> C -2.8025834452 1.4980991702 -0.5821667026
| 20> H 3.7953998868 0.5261108519 1.1415033007
| 21> H 4.2618611484 -0.6748626921 -0.0643441876
| 22> H 4.2571386755 1.0397236155 -0.4818141748
| 23> H 1.5733939739 1.7471857706 0.8929994537
| 24> H 2.0253804816 2.2674588936 -0.7315403263
| 25> H -0.4000898582 2.3068027662 -0.4550748916
| 26> H 0.0612989371 1.1230415247 -1.683149093
| 27> H 1.5805955903 -0.6762000405 1.4840146423
| 28> H 2.0501787545 -1.8917463086 0.289190517
| 29> H -0.3771256745 -2.0114959857 1.6284940307
| 30> H -2.1070543224 -0.3813022228 -1.3434704727
| 31> H -4.0275960401 -0.7409161987 0.185746129
| 32> H -3.0513821587 -0.2074535144 1.553510618
| 33> H -2.6335075866 -1.692112327 0.6841485613
| 34> H -2.3595166763 2.0458218669 -1.4082423196
| 35> H -2.7303363931 2.0985449693 0.322044943
| 36> H -3.8566191051 1.3536961891 -0.8086318953
| 37> *
| 38>
| 39>                          ****END OF INPUT****

CARTESIAN COORDINATES (ANGSTROEM)
---------------------------------
  C      3.742532    0.268479    0.085995
  C      2.288242    0.157467   -0.363099
  H      2.266788   -0.102139   -1.427463
  C      1.540125    1.471357   -0.163571
  C      0.088114    1.346546   -0.613804
  C     -0.681310    0.251292    0.138024
  H     -0.710853    0.512189    1.202784
  C      0.093719   -1.076256   -0.016778
  H      0.057363   -1.379148   -1.070578
  C      1.555468   -0.926442    0.419425
  O     -0.485960   -2.165786    0.679465
  C     -2.136316    0.134652   -0.376497
  C     -3.013416   -0.681894    0.574924
  C     -2.802583    1.498099   -0.582167
  H      3.795400    0.526111    1.141503
  H      4.261861   -0.674863   -0.064344
  H      4.257139    1.039724   -0.481814
  H      1.573394    1.747186    0.892999
  H      2.025380    2.267459   -0.731540
  H     -0.400090    2.306803   -0.455075
  H      0.061299    1.123042   -1.683149
  H      1.580596   -0.676200    1.484015
  H      2.050179   -1.891746    0.289191
  H     -0.377126   -2.011496    1.628494
  H     -2.107054   -0.381302   -1.343470
  H     -4.027596   -0.740916    0.185746
  H     -3.051382   -0.207454    1.553511
  H     -2.633508   -1.692112    0.684149
  H     -2.359517    2.045822   -1.408242
  H     -2.730336    2.098545    0.322045
  H     -3.856619    1.353696   -0.808632

 Total Charge           Charge          ....    0
 Multiplicity           Mult            ....    1
 Number of Electrons    NEL             ....   88
 Basis Dimension        Dim             ....  194

ORBITAL ENERGIES
----------------

  NO   OCC          E(Eh)            E(eV)
   0   2.0000     -18.740002      -509.9414
   1   2.0000      -9.933419      -270.3021
   2   2.0000      -9.894213      -269.2352
   3   2.0000      -9.890198      -269.1260
   4   2.0000      -9.888206      -269.0718
   5   2.0000      -9.882108      -268.9058
   6   2.0000      -9.881709      -268.8950
   7   2.0000      -9.881344      -268.8850
   8   2.0000      -9.873516      -268.6720
   9   2.0000      -9.867330      -268.5037
  10   2.0000      -9.856615      -268.2121
  11   2.0000      -0.919710       -25.0266
  12   2.0000      -0.759744       -20.6737
  13   2.0000      -0.720935       -19.6176
  14   2.0000      -0.669414       -18.2157
  15   2.0000      -0.655655       -17.8413
  16   2.0000      -0.604768       -16.4566
  17   2.0000      -0.600101       -16.3296
  18   2.0000      -0.549276       -14.9466
  19   2.0000      -0.533278       -14.5112
  20   2.0000      -0.506397       -13.7798
  21   2.0000      -0.494453       -13.4547
  22   2.0000      -0.448638       -12.2081
  23   2.0000      -0.423001       -11.5104
  24   2.0000      -0.402174       -10.9437
  25   2.0000      -0.400771       -10.9055
  26   2.0000      -0.391377       -10.6499
  27   2.0000      -0.382278       -10.4023
  28   2.0000      -0.362188        -9.8556
  29   2.0000      -0.360027        -9.7968
  30   2.0000      -0.348075        -9.4716
  31   2.0000      -0.343938        -9.3590
  32   2.0000      -0.330920        -9.0048
  33   2.0000      -0.323858        -8.8126
  34   2.0000      -0.311353        -8.4724
  35   2.0000      -0.303006        -8.2452
  36   2.0000      -0.299172        -8.1409
  37   2.0000      -0.292970        -7.9721
  38   2.0000      -0.285142        -7.7591
  39   2.0000      -0.280095        -7.6218
  40   2.0000      -0.274721        -7.4755
  41   2.0000      -0.263522        -7.1708
  42   2.0000      -0.250936        -6.8283
  43   2.0000      -0.203707        -5.5431
  44   0.0000       0.026506         0.7213
  45   0.0000       0.036621         0.9965
  46   0.0000       0.044849         1.2204
  47   0.0000       0.048352         1.3157
  48   0.0000       0.073421         1.9979

MULLIKEN ATOMIC CHARGES
-----------------------
   0 C :   -0.195205
   1 C :   -0.207478
   2 H :    0.064558
   3 C :   -0.088345
   4 C :   -0.122779
   5 C :   -0.151910
   6 H :    0.033826
   7 C :    0.077111
   8 H :    0.054006
   9 C :   -0.093480
  10 O :   -0.407533
  11 C :   -0.121028
  12 C :   -0.255364
  13 C :   -0.235549
  14 H :    0.088720
  15 H :    0.096867
  16 H :    0.096037
  17 H :    0.062906
  18 H :    0.076989
  19 H :    0.090454
  20 H :    0.071437
  21 H :    0.049165
  22 H :    0.085379
  23 H :    0.294271
  24 H :    0.061419
  25 H :    0.088215
  26 H :    0.076937
  27 H :    0.118204
  28 H :    0.106097
  29 H :    0.090976
  30 H :    0.095094
Sum of atomic charges:    0.0000000

LOEWDIN ATOMIC CHARGES
----------------------
   0 C :   -0.326540
   1 C :   -0.153952
   2 H :    0.114964
   3 C :   -0.215688
   4 C :   -0.216851
   5 C :   -0.147529
   6 H :    0.107561
   7 C :   -0.045799
   8 H :    0.111439
   9 C :   -0.227360
  10 O :   -0.310587
  11 C :   -0.144136
  12 C :   -0.344125
  13 C :   -0.331786
  14 H :    0.116198
  15 H :    0.117758
  16 H :    0.117533
  17 H :    0.112981
  18 H :    0.115803
  19 H :    0.120441
  20 H :    0.116103
  21 H :    0.108268
  22 H :    0.118615
  23 H :    0.280085
  24 H :    0.114401
  25 H :    0.112474
  26 H :    0.109250
  27 H :    0.121543
  28 H :    0.115803
  29 H :    0.115688
  30 H :    0.117445

  Mayer bond orders larger than 0.100000
B(  0-C ,  1-C ) :   1.1107 B(  0-C , 14-H ) :   0.9460 B(  0-C , 15-H ) :   0.9489
B(  0-C , 16-H ) :   0.9480 B(  1-C ,  2-H ) :   0.8932 B(  1-C ,  3-C ) :   1.0917
B(  1-C ,  9-C ) :   1.0760 B(  3-C ,  4-C ) :   1.1439 B(  3-C , 17-H ) :   0.9024
B(  3-C , 18-H ) :   0.9112 B(  4-C ,  5-C ) :   1.0903 B(  4-C , 19-H ) :   0.8961
B(  4-C , 20-H ) :   0.9016 B(  5-C ,  6-H ) :   0.8668 B(  5-C ,  7-C ) :   1.0259
B(  5-C , 11-C ) :   1.0325 B(  7-C ,  8-H ) :   0.8777 B(  7-C ,  9-C ) :   1.1022
B(  7-C , 10-O ) :   1.0340 B(  9-C , 21-H ) :   0.8886 B(  9-C , 22-H ) :   0.9069
B( 10-O , 23-H ) :   0.8455 B( 11-C , 12-C ) :   1.1255 B( 11-C , 13-C ) :   1.1226
B( 11-C , 24-H ) :   0.8882 B( 12-C , 25-H ) :   0.9448 B( 12-C , 26-H ) :   0.9484
B( 12-C , 27-H ) :   0.9224 B( 13-C , 28-H ) :   0.9366 B( 13-C , 29-H ) :   0.9456
B( 13-C , 30-H ) :   0.9462

Dispersion correction           -0.031323423
FINAL SINGLE POINT ENERGY      -467.196713557933

DIPOLE MOMENT
-------------

Method             : SCF
Type of density    : Electron Density
Multiplicity       :   1
Irrep              :   0
Energy             :  -467.3098469625962252 Eh
Relativity type    :
Basis              : AO
                                X                 Y                 Z
Electronic contribution:      0.661141858      -4.501949393       0.281250030
Nuclear contribution   :     -0.311815647       4.905610939      -0.074233209
                        -----------------------------------------
Total Dipole Moment    :      0.349326211       0.403661546       0.207016821
                        -----------------------------------------
Magnitude (a.u.)       :      0.572562145
Magnitude (Debye)      :      1.455337314

Rotational constants in cm-1:             0.062019             0.023446             0.017976
Rotational constants in MHz :          1859.272384           702.886204           538.912867

                             ****ORCA TERMINATED NORMALLY****
TOTAL RUN TIME: 0 days 0 hours 0 minutes 14 seconds 655 msec
