                         Program Version 6.0.0  -   RELEASE  -
|  1> ! pbe def2-sv(p) def2/J RI DEFGRID1 loosescf d4 GCP(DFT/SV(P)) printgap
|  2> %output
|  3>     printlevel normal
|  4> end
|  5> * xyz 0 1
|  6> C 0.1685017746 -0.6520164869 0.5215953466
|  7> H 0.202894333 -0.747949804 1.6139617804
|  8> C 1.3303129026 0.2128223935 0.0190737919
|  9> F 1.285080442 1.4288741773 0.5637153834
| 10> F 1.3282979623 0.3584557868 -1.3025592315
| 11> F 2.5067608199 -0.3277123535 0.3590146615
| 12> F 0.2574720104 -1.8782618298 -0.0311201649
| 13> Br -1.5064716457 0.1749923363 -0.00392011
| 14> *
| 15>
| 16>                          ****END OF INPUT****

CARTESIAN COORDINATES (ANGSTROEM)
---------------------------------
  C      0.168502   -0.652016    0.521595
  H      0.202894   -0.747950    1.613962
  C      1.330313    0.212822    0.019074
  F      1.285080    1.428874    0.563715
  F      1.328298    0.358456   -1.302559
  F      2.506761   -0.327712    0.359015
  F      0.257472   -1.878262   -0.031120
  Br    -1.506472    0.174992   -0.003920

 Total Charge           Charge          ....    0
 Multiplicity           Mult            ....    1
 Number of Electrons    NEL             ....   84
 Basis Dimension        Dim             ....  118

ORBITAL ENERGIES
----------------

  NO   OCC          E(Eh)            E(eV)
   0   2.0000    -480.954143    -13087.4276
   1   2.0000     -61.797183     -1681.5868
   2   2.0000     -55.727841     -1516.4316
   3   2.0000     -55.724624     -1516.3441
   4   2.0000     -55.724560     -1516.3424
   5   2.0000     -24.307913      -661.4519
   6   2.0000     -24.307783      -661.4484
   7   2.0000     -24.306768      -661.4208
   8   2.0000     -24.300970      -661.2630
   9   2.0000     -10.147146      -276.1179
  10   2.0000     -10.050884      -273.4985
  11   2.0000      -8.422873      -229.1980
  12   2.0000      -6.305383      -171.5782
  13   2.0000      -6.290436      -171.1715
  14   2.0000      -6.289877      -171.1562
  15   2.0000      -2.506411       -68.2029
  16   2.0000      -2.502898       -68.1073
  17   2.0000      -2.502461       -68.0954
  18   2.0000      -2.491198       -67.7889
  19   2.0000      -2.491180       -67.7885
  20   2.0000      -1.216214       -33.0949
  21   2.0000      -1.139207       -30.9994
  22   2.0000      -1.121239       -30.5105
  23   2.0000      -1.119923       -30.4747
  24   2.0000      -0.770760       -20.9734
  25   2.0000      -0.684645       -18.6301
  26   2.0000      -0.607065       -16.5191
  27   2.0000      -0.552486       -15.0339
  28   2.0000      -0.548574       -14.9275
  29   2.0000      -0.538175       -14.6445
  30   2.0000      -0.493556       -13.4303
  31   2.0000      -0.455271       -12.3886
  32   2.0000      -0.417798       -11.3689
  33   2.0000      -0.415854       -11.3160
  34   2.0000      -0.403615       -10.9829
  35   2.0000      -0.378845       -10.3089
  36   2.0000      -0.377228       -10.2649
  37   2.0000      -0.356322        -9.6960
  38   2.0000      -0.337429        -9.1819
  39   2.0000      -0.329795        -8.9742
  40   2.0000      -0.273025        -7.4294
  41   2.0000      -0.267015        -7.2659
  42   0.0000      -0.058962        -1.6044
  43   0.0000       0.020003         0.5443
  44   0.0000       0.047238         1.2854
  45   0.0000       0.126232         3.4350
  46   0.0000       0.150191         4.0869

MULLIKEN ATOMIC CHARGES
-----------------------
   0 C :    0.011454
   1 H :    0.147739
   2 C :    0.409988
   3 F :   -0.124396
   4 F :   -0.117406
   5 F :   -0.128703
   6 F :   -0.153417
   7 Br:   -0.045258
Sum of atomic charges:    0.0000000

LOEWDIN ATOMIC CHARGES
----------------------
   0 C :   -0.130785
   1 H :    0.133726
   2 C :    0.061338
   3 F :   -0.030416
   4 F :   -0.022715
   5 F :   -0.033217
   6 F :   -0.057389
   7 Br:    0.079456

  Mayer bond orders larger than 0.100000
B(  0-C ,  1-H ) :   0.8910 B(  0-C ,  2-C ) :   0.9097 B(  0-C ,  6-F ) :   1.0747
B(  0-C ,  7-Br) :   1.0520 B(  2-C ,  3-F ) :   1.1688 B(  2-C ,  4-F ) :   1.1893
B(  2-C ,  5-F ) :   1.1704

Dispersion correction           -0.006947562
FINAL SINGLE POINT ENERGY     -3048.752835057508

DIPOLE MOMENT
-------------

Method             : SCF
Type of density    : Electron Density
Multiplicity       :   1
Irrep              :   0
Energy             : -3048.8113989076919097 Eh
Relativity type    :
Basis              : AO
                                X                 Y                 Z
Electronic contribution:     -9.313869410       1.860887946      -1.445102111
Nuclear contribution   :      9.195644866      -1.938666031       1.931365415
                        -----------------------------------------
Total Dipole Moment    :     -0.118224544      -0.077778085       0.486263304
                        -----------------------------------------
Magnitude (a.u.)       :      0.506437039
Magnitude (Debye)      :      1.287260652

Rotational constants in cm-1:             0.101804             0.038741             0.033220
Rotational constants in MHz :          3052.013954          1161.422804           995.911209

                             ****ORCA TERMINATED NORMALLY****
TOTAL RUN TIME: 0 days 0 hours 0 minutes 5 seconds 767 msec
