                         Program Version 6.0.0  -   RELEASE  -
|  1> ! pbe def2-sv(p) def2/J RI DEFGRID1 loosescf d4 GCP(DFT/SV(P)) printgap
|  2> %output
|  3>     printlevel normal
|  4> end
|  5> * xyz 0 1
|  6> C 2.8861345065 -0.0615107617 -0.0006882514
|  7> C 1.3916679706 -0.0042038403 0.0004055217
|  8> C 0.7126363006 1.2128380853 0.0003732739
|  9> C -0.6677883232 1.2220996612 0.0002059355
| 10> C -1.3550777273 0.0083573978 7.37861e-05
| 11> N -0.7135292724 -1.1536888808 0.0002585444
| 12> C 0.6107022099 -1.1517336832 0.0004114839
| 13> C -2.8510089157 -0.0340665068 -0.0005615968
| 14> H 3.2801811228 0.4253892546 -0.8912607414
| 15> H 3.2835913985 0.4595452883 0.8686235003
| 16> H 3.2318045178 -1.0913953343 0.0180448558
| 17> H 1.2680447121 2.1401054289 0.0004954036
| 18> H -1.2163532446 2.1516209788 0.0002518497
| 19> H 1.0697571122 -2.132906109 0.0007222532
| 20> H -3.1871903676 -1.0658331954 0.0071555082
| 21> H -3.2411637487 0.4791843601 0.8759529136
| 22> H -3.2395413546 0.4647290894 -0.886202043
| 23> *
| 24>
| 25>                          ****END OF INPUT****

CARTESIAN COORDINATES (ANGSTROEM)
---------------------------------
  C      2.886135   -0.061511   -0.000688
  C      1.391668   -0.004204    0.000406
  C      0.712636    1.212838    0.000373
  C     -0.667788    1.222100    0.000206
  C     -1.355078    0.008357    0.000074
  N     -0.713529   -1.153689    0.000259
  C      0.610702   -1.151734    0.000411
  C     -2.851009   -0.034067   -0.000562
  H      3.280181    0.425389   -0.891261
  H      3.283591    0.459545    0.868624
  H      3.231805   -1.091395    0.018045
  H      1.268045    2.140105    0.000495
  H     -1.216353    2.151621    0.000252
  H      1.069757   -2.132906    0.000722
  H     -3.187190   -1.065833    0.007156
  H     -3.241164    0.479184    0.875953
  H     -3.239541    0.464729   -0.886202

 Total Charge           Charge          ....    0
 Multiplicity           Mult            ....    1
 Number of Electrons    NEL             ....   58
 Basis Dimension        Dim             ....  130

ORBITAL ENERGIES
----------------

  NO   OCC          E(Eh)            E(eV)
   0   2.0000     -13.974672      -380.2702
   1   2.0000      -9.925663      -270.0910
   2   2.0000      -9.912562      -269.7345
   3   2.0000      -9.906048      -269.5573
   4   2.0000      -9.901326      -269.4288
   5   2.0000      -9.893487      -269.2155
   6   2.0000      -9.889746      -269.1137
   7   2.0000      -9.875758      -268.7330
   8   2.0000      -0.853304       -23.2196
   9   2.0000      -0.733624       -19.9629
  10   2.0000      -0.704910       -19.1816
  11   2.0000      -0.655492       -17.8368
  12   2.0000      -0.596607       -16.2345
  13   2.0000      -0.562327       -15.3017
  14   2.0000      -0.529160       -14.3992
  15   2.0000      -0.451068       -12.2742
  16   2.0000      -0.440501       -11.9866
  17   2.0000      -0.399527       -10.8717
  18   2.0000      -0.392130       -10.6704
  19   2.0000      -0.377064       -10.2604
  20   2.0000      -0.365482        -9.9453
  21   2.0000      -0.358234        -9.7480
  22   2.0000      -0.343619        -9.3503
  23   2.0000      -0.328538        -8.9400
  24   2.0000      -0.327784        -8.9194
  25   2.0000      -0.309957        -8.4344
  26   2.0000      -0.253783        -6.9058
  27   2.0000      -0.219839        -5.9821
  28   2.0000      -0.198515        -5.4019
  29   0.0000      -0.049209        -1.3391
  30   0.0000      -0.036912        -1.0044
  31   0.0000       0.047349         1.2884
  32   0.0000       0.058011         1.5786
  33   0.0000       0.076981         2.0947

MULLIKEN ATOMIC CHARGES
-----------------------
   0 C :   -0.220320
   1 C :   -0.016800
   2 C :   -0.048859
   3 C :   -0.083131
   4 C :   -0.088073
   5 N :   -0.050504
   6 C :   -0.103289
   7 C :   -0.203086
   8 H :    0.117370
   9 H :    0.116685
  10 H :    0.107159
  11 H :    0.047227
  12 H :    0.043773
  13 H :    0.051467
  14 H :    0.107518
  15 H :    0.111269
  16 H :    0.111596
Sum of atomic charges:    0.0000000

LOEWDIN ATOMIC CHARGES
----------------------
   0 C :   -0.322746
   1 C :   -0.073814
   2 C :   -0.097494
   3 C :   -0.136181
   4 C :   -0.020118
   5 N :   -0.075232
   6 C :   -0.086548
   7 C :   -0.335699
   8 H :    0.133238
   9 H :    0.132873
  10 H :    0.127149
  11 H :    0.123619
  12 H :    0.124627
  13 H :    0.110970
  14 H :    0.131372
  15 H :    0.131885
  16 H :    0.132100

  Mayer bond orders larger than 0.100000
B(  0-C ,  1-C ) :   1.0986 B(  0-C ,  8-H ) :   0.9353 B(  0-C ,  9-H ) :   0.9358
B(  0-C , 10-H ) :   0.9436 B(  1-C ,  2-C ) :   1.3950 B(  1-C ,  6-C ) :   1.3828
B(  2-C ,  3-C ) :   1.4253 B(  2-C , 11-H ) :   0.9592 B(  3-C ,  4-C ) :   1.3487
B(  3-C , 12-H ) :   0.9493 B(  4-C ,  5-N ) :   1.5793 B(  4-C ,  7-C ) :   1.0972
B(  5-N ,  6-C ) :   1.5317 B(  6-C , 13-H ) :   0.9483 B(  7-C , 14-H ) :   0.9371
B(  7-C , 15-H ) :   0.9366 B(  7-C , 16-H ) :   0.9363

Dispersion correction           -0.016171470
FINAL SINGLE POINT ENERGY      -326.184950069451

DIPOLE MOMENT
-------------

Method             : SCF
Type of density    : Electron Density
Multiplicity       :   1
Irrep              :   0
Energy             :  -326.2333855252326202 Eh
Relativity type    :
Basis              : AO
                                X                 Y                 Z
Electronic contribution:     -0.771947599      -1.019973148       0.003589270
Nuclear contribution   :      1.167982316       1.710935308      -0.005830707
                        -----------------------------------------
Total Dipole Moment    :      0.396034717       0.690962160      -0.002241437
                        -----------------------------------------
Magnitude (a.u.)       :      0.796415236
Magnitude (Debye)      :      2.024326653

Rotational constants in cm-1:             0.186419             0.050007             0.040015
Rotational constants in MHz :          5588.710337          1499.183980          1199.633409

                             ****ORCA TERMINATED NORMALLY****
TOTAL RUN TIME: 0 days 0 hours 0 minutes 7 seconds 979 msec
