                         Program Version 6.0.0  -   RELEASE  -
|  1> ! pbe def2-sv(p) def2/J RI DEFGRID1 loosescf d4 GCP(DFT/SV(P)) printgap
|  2> %output
|  3>     printlevel normal
|  4> end
|  5> * xyz 0 1
|  6> C -3.7682080245 0.9161059752 -0.0275293056
|  7> O -2.3405139451 0.9123043926 -0.029594663
|  8> C -1.716848079 -0.2677919879 0.012545965
|  9> O -2.31747579 -1.3296788076 0.0458612557
| 10> C -0.2526033441 -0.1453451246 0.0060644159
| 11> C 0.3845917186 1.0975704807 -0.0191275429
| 12> C 1.758321603 1.1712051695 -0.0233358405
| 13> C 2.5278380474 0.0047375667 -0.0029898859
| 14> C 1.8939251466 -1.237845073 0.0221130062
| 15> C 0.5181958416 -1.3081539437 0.0271266669
| 16> O 3.8677132834 0.133735555 -0.0083415736
| 17> H -4.0686687452 1.8161781197 -0.556446082
| 18> H -4.1281189866 0.9370525674 1.0017186483
| 19> H -4.1453605221 0.0214479663 -0.5249619567
| 20> H -0.2097513081 1.9965877988 -0.034666572
| 21> H 2.2672249842 2.1213334429 -0.0421633996
| 22> H 2.4794893485 -2.1446360124 0.0377885241
| 23> H 0.0112977434 -2.2609888923 0.0467220469
| 24> H 4.3080226225 -0.7311266833 0.0073705918
| 25> *
| 26>
| 27>                          ****END OF INPUT****

CARTESIAN COORDINATES (ANGSTROEM)
---------------------------------
  C     -3.768208    0.916106   -0.027529
  O     -2.340514    0.912304   -0.029595
  C     -1.716848   -0.267792    0.012546
  O     -2.317476   -1.329679    0.045861
  C     -0.252603   -0.145345    0.006064
  C      0.384592    1.097570   -0.019128
  C      1.758322    1.171205   -0.023336
  C      2.527838    0.004738   -0.002990
  C      1.893925   -1.237845    0.022113
  C      0.518196   -1.308154    0.027127
  O      3.867713    0.133736   -0.008342
  H     -4.068669    1.816178   -0.556446
  H     -4.128119    0.937053    1.001719
  H     -4.145361    0.021448   -0.524962
  H     -0.209751    1.996588   -0.034667
  H      2.267225    2.121333   -0.042163
  H      2.479489   -2.144636    0.037789
  H      0.011298   -2.260989    0.046722
  H      4.308023   -0.731127    0.007371

 Total Charge           Charge          ....    0
 Multiplicity           Mult            ....    1
 Number of Electrons    NEL             ....   80
 Basis Dimension        Dim             ....  170

ORBITAL ENERGIES
----------------

  NO   OCC          E(Eh)            E(eV)
   0   2.0000     -18.799462      -511.5594
   1   2.0000     -18.795064      -511.4397
   2   2.0000     -18.727903      -509.6122
   3   2.0000     -10.000371      -272.1239
   4   2.0000      -9.966767      -271.2095
   5   2.0000      -9.936768      -270.3932
   6   2.0000      -9.902385      -269.4576
   7   2.0000      -9.901953      -269.4458
   8   2.0000      -9.900849      -269.4158
   9   2.0000      -9.900675      -269.4111
  10   2.0000      -9.895402      -269.2676
  11   2.0000      -0.998973       -27.1834
  12   2.0000      -0.982145       -26.7255
  13   2.0000      -0.902259       -24.5517
  14   2.0000      -0.782560       -21.2945
  15   2.0000      -0.696405       -18.9502
  16   2.0000      -0.682991       -18.5851
  17   2.0000      -0.649765       -17.6810
  18   2.0000      -0.584293       -15.8994
  19   2.0000      -0.555416       -15.1136
  20   2.0000      -0.509568       -13.8660
  21   2.0000      -0.506072       -13.7709
  22   2.0000      -0.479077       -13.0364
  23   2.0000      -0.431881       -11.7521
  24   2.0000      -0.429238       -11.6802
  25   2.0000      -0.410916       -11.1816
  26   2.0000      -0.389160       -10.5896
  27   2.0000      -0.386350       -10.5131
  28   2.0000      -0.382951       -10.4206
  29   2.0000      -0.379703       -10.3322
  30   2.0000      -0.356167        -9.6918
  31   2.0000      -0.350569        -9.5395
  32   2.0000      -0.334239        -9.0951
  33   2.0000      -0.306479        -8.3397
  34   2.0000      -0.300755        -8.1840
  35   2.0000      -0.292575        -7.9614
  36   2.0000      -0.252866        -6.8808
  37   2.0000      -0.238736        -6.4963
  38   2.0000      -0.217466        -5.9176
  39   2.0000      -0.206687        -5.6242
  40   0.0000      -0.063072        -1.7163
  41   0.0000      -0.041692        -1.1345
  42   0.0000       0.013098         0.3564
  43   0.0000       0.031673         0.8619
  44   0.0000       0.050420         1.3720

MULLIKEN ATOMIC CHARGES
-----------------------
   0 C :   -0.115323
   1 O :   -0.250628
   2 C :    0.150800
   3 O :   -0.205163
   4 C :    0.038997
   5 C :   -0.083443
   6 C :   -0.112295
   7 C :    0.246364
   8 C :   -0.151212
   9 C :   -0.099483
  10 O :   -0.316257
  11 H :    0.119481
  12 H :    0.118500
  13 H :    0.127993
  14 H :    0.059924
  15 H :    0.050306
  16 H :    0.034267
  17 H :    0.064754
  18 H :    0.322418
Sum of atomic charges:    0.0000000

LOEWDIN ATOMIC CHARGES
----------------------
   0 C :   -0.204647
   1 O :   -0.076131
   2 C :    0.044919
   3 O :   -0.177442
   4 C :   -0.099478
   5 C :   -0.090031
   6 C :   -0.146985
   7 C :    0.031243
   8 C :   -0.174213
   9 C :   -0.079683
  10 O :   -0.215430
  11 H :    0.119326
  12 H :    0.118526
  13 H :    0.122725
  14 H :    0.132641
  15 H :    0.132652
  16 H :    0.123226
  17 H :    0.136607
  18 H :    0.302176

  Mayer bond orders larger than 0.100000
B(  0-C ,  1-O ) :   0.9403 B(  0-C , 11-H ) :   0.9608 B(  0-C , 12-H ) :   0.9587
B(  0-C , 13-H ) :   0.9365 B(  1-O ,  2-C ) :   1.2287 B(  2-C ,  3-O ) :   2.0575
B(  2-C ,  4-C ) :   0.9609 B(  4-C ,  5-C ) :   1.3295 B(  4-C ,  9-C ) :   1.3774
B(  5-C ,  6-C ) :   1.3670 B(  5-C , 14-H ) :   0.9607 B(  6-C ,  7-C ) :   1.3349
B(  6-C , 15-H ) :   0.9662 B(  7-C ,  8-C ) :   1.2825 B(  7-C , 10-O ) :   1.2142
B(  8-C ,  9-C ) :   1.3584 B(  8-C , 16-H ) :   0.9612 B(  9-C , 17-H ) :   0.9544
B( 10-O , 18-H ) :   0.8380

Dispersion correction           -0.019653852
FINAL SINGLE POINT ENERGY      -534.245655027494

DIPOLE MOMENT
-------------

Method             : SCF
Type of density    : Electron Density
Multiplicity       :   1
Irrep              :   0
Energy             :  -534.3109751556796709 Eh
Relativity type    :
Basis              : AO
                                X                 Y                 Z
Electronic contribution:      3.887612213      -1.455793083       0.045664905
Nuclear contribution   :     -3.282042228       1.643086310      -0.060524351
                        -----------------------------------------
Total Dipole Moment    :      0.605569985       0.187293227      -0.014859446
                        -----------------------------------------
Magnitude (a.u.)       :      0.634046183
Magnitude (Debye)      :      1.611617321

Rotational constants in cm-1:             0.115334             0.019463             0.016706
Rotational constants in MHz :          3457.612036           583.497788           500.835642

                             ****ORCA TERMINATED NORMALLY****
TOTAL RUN TIME: 0 days 0 hours 0 minutes 8 seconds 604 msec
