                         Program Version 6.0.0  -   RELEASE  -
|  1> ! pbe def2-sv(p) def2/J RI DEFGRID1 loosescf d4 GCP(DFT/SV(P)) printgap
|  2> %output
|  3>     printlevel normal
|  4> end
|  5> * xyz 0 1
|  6> C 2.0677058495 0.0307817241 -0.126128333
|  7> C 0.7630546935 0.6935778507 0.3005572822
|  8> C -0.4591259377 0.0059190177 -0.3232098581
|  9> H -0.3246161897 -0.0535410279 -1.4095374853
| 10> C -1.7429213408 0.7750018153 -0.009045877
| 11> O -0.5591577061 -1.3474536295 0.0860552642
| 12> H 2.2220995888 0.1529075637 -1.1957576963
| 13> H 2.034881071 -1.0342571775 0.0920543964
| 14> H 2.9109003634 0.471137162 0.3994297743
| 15> H 0.763773897 1.7415376173 -0.001247301
| 16> H 0.6711834948 0.6557391588 1.3888361098
| 17> H -2.6014497081 0.2382931706 -0.4050545649
| 18> H -1.8635314132 0.8864219715 1.0666209504
| 19> H -1.7069491656 1.7618107478 -0.4603575918
| 20> H -0.7223995052 -1.3685260714 1.0397091633
| 21> *
| 22>
| 23>                          ****END OF INPUT****

CARTESIAN COORDINATES (ANGSTROEM)
---------------------------------
  C      2.067706    0.030782   -0.126128
  C      0.763055    0.693578    0.300557
  C     -0.459126    0.005919   -0.323210
  H     -0.324616   -0.053541   -1.409537
  C     -1.742921    0.775002   -0.009046
  O     -0.559158   -1.347454    0.086055
  H      2.222100    0.152908   -1.195758
  H      2.034881   -1.034257    0.092054
  H      2.910900    0.471137    0.399430
  H      0.763774    1.741538   -0.001247
  H      0.671183    0.655739    1.388836
  H     -2.601450    0.238293   -0.405055
  H     -1.863531    0.886422    1.066621
  H     -1.706949    1.761811   -0.460358
  H     -0.722400   -1.368526    1.039709

 Total Charge           Charge          ....    0
 Multiplicity           Mult            ....    1
 Number of Electrons    NEL             ....   42
 Basis Dimension        Dim             ....   90

ORBITAL ENERGIES
----------------

  NO   OCC          E(Eh)            E(eV)
   0   2.0000     -18.738968      -509.9132
   1   2.0000      -9.934711      -270.3372
   2   2.0000      -9.883646      -268.9477
   3   2.0000      -9.874360      -268.6950
   4   2.0000      -9.869273      -268.5566
   5   2.0000      -0.917098       -24.9555
   6   2.0000      -0.704201       -19.1623
   7   2.0000      -0.650300       -17.6956
   8   2.0000      -0.563537       -15.3346
   9   2.0000      -0.532583       -14.4923
  10   2.0000      -0.430982       -11.7276
  11   2.0000      -0.414073       -11.2675
  12   2.0000      -0.391991       -10.6666
  13   2.0000      -0.375041       -10.2054
  14   2.0000      -0.359328        -9.7778
  15   2.0000      -0.324832        -8.8391
  16   2.0000      -0.319566        -8.6958
  17   2.0000      -0.299444        -8.1483
  18   2.0000      -0.296215        -8.0604
  19   2.0000      -0.264546        -7.1987
  20   2.0000      -0.212257        -5.7758
  21   0.0000       0.025769         0.7012
  22   0.0000       0.057057         1.5526
  23   0.0000       0.069932         1.9030
  24   0.0000       0.082330         2.2403
  25   0.0000       0.097976         2.6661

MULLIKEN ATOMIC CHARGES
-----------------------
   0 C :   -0.251912
   1 C :   -0.181628
   2 C :    0.003863
   3 H :    0.069899
   4 C :   -0.237085
   5 O :   -0.428510
   6 H :    0.094936
   7 H :    0.102032
   8 H :    0.100140
   9 H :    0.081990
  10 H :    0.066984
  11 H :    0.109945
  12 H :    0.083434
  13 H :    0.096774
  14 H :    0.289140
Sum of atomic charges:   -0.0000000

LOEWDIN ATOMIC CHARGES
----------------------
   0 C :   -0.343452
   1 C :   -0.247234
   2 C :   -0.059934
   3 H :    0.111713
   4 C :   -0.352576
   5 O :   -0.327942
   6 H :    0.117474
   7 H :    0.119359
   8 H :    0.117451
   9 H :    0.117848
  10 H :    0.109404
  11 H :    0.122577
  12 H :    0.113473
  13 H :    0.123036
  14 H :    0.278802

  Mayer bond orders larger than 0.100000
B(  0-C ,  1-C ) :   1.1552 B(  0-C ,  6-H ) :   0.9550 B(  0-C ,  7-H ) :   0.9451
B(  0-C ,  8-H ) :   0.9534 B(  1-C ,  2-C ) :   1.0644 B(  1-C ,  9-H ) :   0.9185
B(  1-C , 10-H ) :   0.9140 B(  2-C ,  3-H ) :   0.9056 B(  2-C ,  4-C ) :   1.1163
B(  2-C ,  5-O ) :   1.0291 B(  4-C , 11-H ) :   0.9467 B(  4-C , 12-H ) :   0.9422
B(  4-C , 13-H ) :   0.9393 B(  5-O , 14-H ) :   0.8545

Dispersion correction           -0.009497436
FINAL SINGLE POINT ENERGY      -233.093511136804

DIPOLE MOMENT
-------------

Method             : SCF
Type of density    : Electron Density
Multiplicity       :   1
Irrep              :   0
Energy             :  -233.1532599366983618 Eh
Relativity type    :
Basis              : AO
                                X                 Y                 Z
Electronic contribution:     -1.364455065      -2.784279426      -0.099503516
Nuclear contribution   :      1.290005547       3.218064205       0.484153951
                        -----------------------------------------
Total Dipole Moment    :     -0.074449518       0.433784779       0.384650436
                        -----------------------------------------
Magnitude (a.u.)       :      0.584523672
Magnitude (Debye)      :      1.485741099

Rotational constants in cm-1:             0.265222             0.115610             0.089798
Rotational constants in MHz :          7951.159681          3465.888745          2692.068207

                             ****ORCA TERMINATED NORMALLY****
TOTAL RUN TIME: 0 days 0 hours 0 minutes 5 seconds 311 msec
