                         Program Version 6.0.0  -   RELEASE  -
|  1> ! pbe def2-sv(p) def2/J RI DEFGRID1 loosescf d4 GCP(DFT/SV(P)) printgap
|  2> %output
|  3>     printlevel normal
|  4> end
|  5> * xyz 0 1
|  6> C -2.423918654 -0.8618707911 0.3529639762
|  7> C -0.9644720265 -0.4426455166 0.5740227859
|  8> H -0.7150684982 -0.6039898486 1.6338288647
|  9> C -0.7374916774 1.0461503443 0.2469358942
| 10> H -1.5232108469 1.3828030575 -0.4417070888
| 11> C 0.630238982 1.2409277865 -0.4588723179
| 12> H 0.9387395244 2.2859177947 -0.3394806861
| 13> C 1.6760806826 0.3415496545 0.217249216
| 14> H 2.6332740833 0.4209905117 -0.3107757804
| 15> C 1.2316527254 -1.1409204041 0.1029757102
| 16> H 1.4046869614 -1.6214146626 1.0876185071
| 17> O -0.1401825492 -1.2673205872 -0.2298284743
| 18> O 1.9620051395 -1.7432757126 -0.9003946992
| 19> O 1.9114636615 0.719647251 1.5481572751
| 20> O 0.55107996 1.0250685614 -1.8412567259
| 21> O -0.7799930686 1.746612805 1.4720680538
| 22> O -2.8790116025 -0.5960807322 -0.9470407404
| 23> H -3.0560608918 -0.2800529725 1.0259119505
| 24> H -2.5218263509 -1.9266981237 0.593297482
| 25> H 1.6898865796 -2.6690815733 -1.0038572347
| 26> H 1.0830794733 1.0444744363 1.9447762787
| 27> H 0.4805831569 0.0740573383 -2.0120038275
| 28> H -0.9532895636 2.6853534414 1.3145928108
| 29> H -2.3817409532 -1.1443809882 -1.569892722
| 30> *
| 31>
| 32>                          ****END OF INPUT****

CARTESIAN COORDINATES (ANGSTROEM)
---------------------------------
  C     -2.423919   -0.861871    0.352964
  C     -0.964472   -0.442646    0.574023
  H     -0.715068   -0.603990    1.633829
  C     -0.737492    1.046150    0.246936
  H     -1.523211    1.382803   -0.441707
  C      0.630239    1.240928   -0.458872
  H      0.938740    2.285918   -0.339481
  C      1.676081    0.341550    0.217249
  H      2.633274    0.420991   -0.310776
  C      1.231653   -1.140920    0.102976
  H      1.404687   -1.621415    1.087619
  O     -0.140183   -1.267321   -0.229828
  O      1.962005   -1.743276   -0.900395
  O      1.911464    0.719647    1.548157
  O      0.551080    1.025069   -1.841257
  O     -0.779993    1.746613    1.472068
  O     -2.879012   -0.596081   -0.947041
  H     -3.056061   -0.280053    1.025912
  H     -2.521826   -1.926698    0.593297
  H      1.689887   -2.669082   -1.003857
  H      1.083079    1.044474    1.944776
  H      0.480583    0.074057   -2.012004
  H     -0.953290    2.685353    1.314593
  H     -2.381741   -1.144381   -1.569893

 Total Charge           Charge          ....    0
 Multiplicity           Mult            ....    1
 Number of Electrons    NEL             ....   96
 Basis Dimension        Dim             ....  192

ORBITAL ENERGIES
----------------

  NO   OCC          E(Eh)            E(eV)
   0   2.0000     -18.783238      -511.1179
   1   2.0000     -18.779710      -511.0219
   2   2.0000     -18.773461      -510.8518
   3   2.0000     -18.757976      -510.4305
   4   2.0000     -18.745966      -510.1037
   5   2.0000     -18.742351      -510.0053
   6   2.0000      -9.989832      -271.8371
   7   2.0000      -9.952476      -270.8206
   8   2.0000      -9.946123      -270.6478
   9   2.0000      -9.941930      -270.5337
  10   2.0000      -9.941400      -270.5192
  11   2.0000      -9.936563      -270.3876
  12   2.0000      -0.995253       -27.0822
  13   2.0000      -0.954964       -25.9859
  14   2.0000      -0.938530       -25.5387
  15   2.0000      -0.928128       -25.2557
  16   2.0000      -0.921807       -25.0836
  17   2.0000      -0.916867       -24.9492
  18   2.0000      -0.706129       -19.2147
  19   2.0000      -0.683766       -18.6062
  20   2.0000      -0.629797       -17.1377
  21   2.0000      -0.590748       -16.0751
  22   2.0000      -0.571182       -15.5426
  23   2.0000      -0.521726       -14.1969
  24   2.0000      -0.512557       -13.9474
  25   2.0000      -0.497894       -13.5484
  26   2.0000      -0.488150       -13.2832
  27   2.0000      -0.463600       -12.6152
  28   2.0000      -0.462844       -12.5946
  29   2.0000      -0.431700       -11.7472
  30   2.0000      -0.416997       -11.3471
  31   2.0000      -0.402743       -10.9592
  32   2.0000      -0.381869       -10.3912
  33   2.0000      -0.376219       -10.2374
  34   2.0000      -0.358730        -9.7615
  35   2.0000      -0.355114        -9.6631
  36   2.0000      -0.332735        -9.0542
  37   2.0000      -0.322386        -8.7726
  38   2.0000      -0.314449        -8.5566
  39   2.0000      -0.308237        -8.3876
  40   2.0000      -0.287620        -7.8265
  41   2.0000      -0.271117        -7.3775
  42   2.0000      -0.265103        -7.2138
  43   2.0000      -0.254731        -6.9316
  44   2.0000      -0.239257        -6.5105
  45   2.0000      -0.231869        -6.3095
  46   2.0000      -0.209977        -5.7138
  47   2.0000      -0.202412        -5.5079
  48   0.0000       0.006070         0.1652
  49   0.0000       0.018306         0.4981
  50   0.0000       0.029338         0.7983
  51   0.0000       0.048827         1.3287
  52   0.0000       0.055262         1.5038

MULLIKEN ATOMIC CHARGES
-----------------------
   0 C :    0.074478
   1 C :   -0.000382
   2 H :    0.061149
   3 C :    0.015938
   4 H :    0.080501
   5 C :    0.037724
   6 H :    0.065498
   7 C :    0.035099
   8 H :    0.091117
   9 C :    0.175294
  10 H :    0.059542
  11 O :   -0.329241
  12 O :   -0.377257
  13 O :   -0.428057
  14 O :   -0.412107
  15 O :   -0.417860
  16 O :   -0.429261
  17 H :    0.095315
  18 H :    0.082402
  19 H :    0.306787
  20 H :    0.302072
  21 H :    0.295765
  22 H :    0.315075
  23 H :    0.300410
Sum of atomic charges:    0.0000000

LOEWDIN ATOMIC CHARGES
----------------------
   0 C :   -0.122143
   1 C :   -0.076236
   2 H :    0.108495
   3 C :   -0.086702
   4 H :    0.113850
   5 C :   -0.080268
   6 H :    0.113062
   7 C :   -0.083493
   8 H :    0.124463
   9 C :   -0.008449
  10 H :    0.088325
  11 O :   -0.171720
  12 O :   -0.288779
  13 O :   -0.320085
  14 O :   -0.311542
  15 O :   -0.310369
  16 O :   -0.327066
  17 H :    0.122079
  18 H :    0.103832
  19 H :    0.290115
  20 H :    0.270660
  21 H :    0.271808
  22 H :    0.295645
  23 H :    0.284517

  Mayer bond orders larger than 0.100000
B(  0-C ,  1-C ) :   1.0463 B(  0-C , 16-O ) :   1.0725 B(  0-C , 17-H ) :   0.9202
B(  0-C , 18-H ) :   0.9150 B(  1-C ,  2-H ) :   0.8623 B(  1-C ,  3-C ) :   0.9966
B(  1-C , 11-O ) :   1.0267 B(  3-C ,  4-H ) :   0.8738 B(  3-C ,  5-C ) :   0.9630
B(  3-C , 15-O ) :   1.0263 B(  5-C ,  6-H ) :   0.8949 B(  5-C ,  7-C ) :   1.0142
B(  5-C , 14-O ) :   1.0657 B(  7-C ,  8-H ) :   0.8913 B(  7-C ,  9-C ) :   0.9327
B(  7-C , 13-O ) :   1.0772 B(  9-C , 10-H ) :   0.8974 B(  9-C , 11-O ) :   0.9872
B(  9-C , 12-O ) :   1.1573 B( 12-O , 19-H ) :   0.8396 B( 13-O , 20-H ) :   0.8091
B( 14-O , 21-H ) :   0.8340 B( 15-O , 20-H ) :   0.1041 B( 15-O , 22-H ) :   0.8405
B( 16-O , 23-H ) :   0.8450

Dispersion correction           -0.025161345
FINAL SINGLE POINT ENERGY      -685.696247366213

DIPOLE MOMENT
-------------

Method             : SCF
Type of density    : Electron Density
Multiplicity       :   1
Irrep              :   0
Energy             :  -685.8285307528973362 Eh
Relativity type    :
Basis              : AO
                                X                 Y                 Z
Electronic contribution:      2.121354340      -0.211262978      -1.549097910
Nuclear contribution   :     -2.731081084      -0.331964964       1.790144655
                        -----------------------------------------
Total Dipole Moment    :     -0.609726744      -0.543227942       0.241046745
                        -----------------------------------------
Magnitude (a.u.)       :      0.851449842
Magnitude (Debye)      :      2.164213505

Rotational constants in cm-1:             0.039397             0.028147             0.022951
Rotational constants in MHz :          1181.102339           843.814874           688.045810

                             ****ORCA TERMINATED NORMALLY****
TOTAL RUN TIME: 0 days 0 hours 0 minutes 12 seconds 292 msec
