                         Program Version 6.0.0  -   RELEASE  -
|  1> ! r2scan-3c def2/J RI DEFGRID2 scfconv6 printgap
|  2> %output
|  3>     printlevel normal
|  4> end
|  5> * xyz 0 1
|  6> C 2.1951199041 0.4804873299 0.1372741477
|  7> C 1.2339064717 -0.5977685777 -0.3487702943
|  8> C -0.1109806988 -0.5572563537 0.3627644716
|  9> H 0.0292614704 -0.5081706719 1.4448213222
| 10> C -1.0130005874 -1.7173120028 -0.0136997151
| 11> Cl -0.9623745089 0.9909762897 -0.0555385153
| 12> H 2.3888732521 0.3677643323 1.2014039155
| 13> H 1.776406508 1.469582306 -0.0325887165
| 14> H 3.1387873949 0.4101744397 -0.3963476021
| 15> H 1.6711442252 -1.5811223771 -0.1657445097
| 16> H 1.0737067879 -0.4929601188 -1.4232066892
| 17> H -0.5486029892 -2.6485875343 0.3001796804
| 18> H -1.9793178981 -1.6263526278 0.4751320245
| 19> H -1.1672292063 -1.7450134097 -1.0894412011
| 20> *
| 21>
| 22>                          ****END OF INPUT****

CARTESIAN COORDINATES (ANGSTROEM)
---------------------------------
  C      2.195120    0.480487    0.137274
  C      1.233906   -0.597769   -0.348770
  C     -0.110981   -0.557256    0.362764
  H      0.029261   -0.508171    1.444821
  C     -1.013001   -1.717312   -0.013700
  Cl    -0.962375    0.990976   -0.055539
  H      2.388873    0.367764    1.201404
  H      1.776407    1.469582   -0.032589
  H      3.138787    0.410174   -0.396348
  H      1.671144   -1.581122   -0.165745
  H      1.073707   -0.492960   -1.423207
  H     -0.548603   -2.648588    0.300180
  H     -1.979318   -1.626353    0.475132
  H     -1.167229   -1.745013   -1.089441

 Total Charge           Charge          ....    0
 Multiplicity           Mult            ....    1
 Number of Electrons    NEL             ....   50
 Basis Dimension        Dim             ....  148

ORBITAL ENERGIES
----------------

  NO   OCC          E(Eh)            E(eV)
   0   2.0000    -101.193028     -2753.6023
   1   2.0000     -10.097839      -274.7762
   2   2.0000     -10.040612      -273.2189
   3   2.0000     -10.033231      -273.0181
   4   2.0000     -10.021314      -272.6938
   5   2.0000      -9.349218      -254.4052
   6   2.0000      -7.095157      -193.0690
   7   2.0000      -7.085478      -192.8057
   8   2.0000      -7.085321      -192.8014
   9   2.0000      -0.827929       -22.5291
  10   2.0000      -0.736380       -20.0379
  11   2.0000      -0.700900       -19.0725
  12   2.0000      -0.608860       -16.5679
  13   2.0000      -0.548740       -14.9320
  14   2.0000      -0.452449       -12.3118
  15   2.0000      -0.421054       -11.4575
  16   2.0000      -0.412687       -11.2298
  17   2.0000      -0.396436       -10.7876
  18   2.0000      -0.358643        -9.7592
  19   2.0000      -0.342278        -9.3138
  20   2.0000      -0.328265        -8.9325
  21   2.0000      -0.319003        -8.6805
  22   2.0000      -0.315385        -8.5821
  23   2.0000      -0.262147        -7.1334
  24   2.0000      -0.261065        -7.1039
  25   0.0000       0.008029         0.2185
  26   0.0000       0.091559         2.4914
  27   0.0000       0.106156         2.8886
  28   0.0000       0.130519         3.5516
  29   0.0000       0.132312         3.6004

MULLIKEN ATOMIC CHARGES
-----------------------
   0 C :   -0.480113
   1 C :   -0.236702
   2 C :    0.039391
   3 H :    0.158651
   4 C :   -0.460580
   5 Cl:   -0.227739
   6 H :    0.141052
   7 H :    0.165866
   8 H :    0.147777
   9 H :    0.135433
  10 H :    0.153355
  11 H :    0.144847
  12 H :    0.162728
  13 H :    0.156034
Sum of atomic charges:    0.0000000

LOEWDIN ATOMIC CHARGES
----------------------
   0 C :   -0.427958
   1 C :   -0.325925
   2 C :   -0.254496
   3 H :    0.160275
   4 C :   -0.425986
   5 Cl:    0.007953
   6 H :    0.150603
   7 H :    0.159686
   8 H :    0.152268
   9 H :    0.160248
  10 H :    0.163024
  11 H :    0.157593
  12 H :    0.161039
  13 H :    0.161675

  Mayer bond orders larger than 0.100000
B(  0-C ,  1-C ) :   0.9171 B(  0-C ,  6-H ) :   0.9833 B(  0-C ,  7-H ) :   0.9694
B(  0-C ,  8-H ) :   0.9730 B(  1-C ,  2-C ) :   0.9304 B(  1-C ,  9-H ) :   0.9553
B(  1-C , 10-H ) :   0.9623 B(  2-C ,  3-H ) :   0.9500 B(  2-C ,  4-C ) :   0.9173
B(  2-C ,  5-Cl) :   0.9063 B(  4-C , 11-H ) :   0.9681 B(  4-C , 12-H ) :   0.9687
B(  4-C , 13-H ) :   0.9765

Dispersion correction           -0.003389909
FINAL SINGLE POINT ENERGY      -617.975005417264

DIPOLE MOMENT
-------------

Method             : SCF
Type of density    : Electron Density
Multiplicity       :   1
Irrep              :   0
Energy             :  -617.9802662892807348 Eh
Relativity type    :
Basis              : AO
                                X                 Y                 Z
Electronic contribution:     -6.838689884       6.535012897      -0.240239066
Nuclear contribution   :      7.280042911      -7.291839379       0.369323005
                        -----------------------------------------
Total Dipole Moment    :      0.441353027      -0.756826481       0.129083939
                        -----------------------------------------
Magnitude (a.u.)       :      0.885574097
Magnitude (Debye)      :      2.250950467

Rotational constants in cm-1:             0.153209             0.104953             0.067623
Rotational constants in MHz :          4593.097441          3146.403015          2027.300459

                             ****ORCA TERMINATED NORMALLY****
TOTAL RUN TIME: 0 days 0 hours 0 minutes 12 seconds 205 msec
