                         Program Version 6.0.0  -   RELEASE  -
|  1> ! r2scan-3c def2/J RI DEFGRID2 scfconv6 printgap
|  2> %output
|  3>     printlevel normal
|  4> end
|  5> %cpcm
|  6>     smd true
|  7>     smdsolvent "water"
|  8> end
|  9> * xyz 0 1
| 10> C 2.1951199041 0.4804873299 0.1372741477
| 11> C 1.2339064717 -0.5977685777 -0.3487702943
| 12> C -0.1109806988 -0.5572563537 0.3627644716
| 13> H 0.0292614704 -0.5081706719 1.4448213222
| 14> C -1.0130005874 -1.7173120028 -0.0136997151
| 15> Cl -0.9623745089 0.9909762897 -0.0555385153
| 16> H 2.3888732521 0.3677643323 1.2014039155
| 17> H 1.776406508 1.469582306 -0.0325887165
| 18> H 3.1387873949 0.4101744397 -0.3963476021
| 19> H 1.6711442252 -1.5811223771 -0.1657445097
| 20> H 1.0737067879 -0.4929601188 -1.4232066892
| 21> H -0.5486029892 -2.6485875343 0.3001796804
| 22> H -1.9793178981 -1.6263526278 0.4751320245
| 23> H -1.1672292063 -1.7450134097 -1.0894412011
| 24> *
| 25>
| 26>                          ****END OF INPUT****

CARTESIAN COORDINATES (ANGSTROEM)
---------------------------------
  C      2.195120    0.480487    0.137274
  C      1.233906   -0.597769   -0.348770
  C     -0.110981   -0.557256    0.362764
  H      0.029261   -0.508171    1.444821
  C     -1.013001   -1.717312   -0.013700
  Cl    -0.962375    0.990976   -0.055539
  H      2.388873    0.367764    1.201404
  H      1.776407    1.469582   -0.032589
  H      3.138787    0.410174   -0.396348
  H      1.671144   -1.581122   -0.165745
  H      1.073707   -0.492960   -1.423207
  H     -0.548603   -2.648588    0.300180
  H     -1.979318   -1.626353    0.475132
  H     -1.167229   -1.745013   -1.089441

 Total Charge           Charge          ....    0
 Multiplicity           Mult            ....    1
 Number of Electrons    NEL             ....   50
 Basis Dimension        Dim             ....  148

ORBITAL ENERGIES
----------------

  NO   OCC          E(Eh)            E(eV)
   0   2.0000    -101.193704     -2753.6207
   1   2.0000     -10.089283      -274.5433
   2   2.0000     -10.027756      -272.8691
   3   2.0000     -10.019223      -272.6369
   4   2.0000     -10.010268      -272.3932
   5   2.0000      -9.350349      -254.4359
   6   2.0000      -7.095896      -193.0891
   7   2.0000      -7.086770      -192.8408
   8   2.0000      -7.086593      -192.8360
   9   2.0000      -0.823000       -22.3950
  10   2.0000      -0.729134       -19.8407
  11   2.0000      -0.690125       -18.7792
  12   2.0000      -0.597721       -16.2648
  13   2.0000      -0.537787       -14.6339
  14   2.0000      -0.442224       -12.0335
  15   2.0000      -0.410443       -11.1687
  16   2.0000      -0.401511       -10.9257
  17   2.0000      -0.384824       -10.4716
  18   2.0000      -0.348376        -9.4798
  19   2.0000      -0.331707        -9.0262
  20   2.0000      -0.318134        -8.6569
  21   2.0000      -0.308712        -8.4005
  22   2.0000      -0.303828        -8.2676
  23   2.0000      -0.262817        -7.1516
  24   2.0000      -0.261903        -7.1267
  25   0.0000       0.011651         0.3170
  26   0.0000       0.105478         2.8702
  27   0.0000       0.118052         3.2124
  28   0.0000       0.141606         3.8533
  29   0.0000       0.146400         3.9837

MULLIKEN ATOMIC CHARGES
-----------------------
   0 C :   -0.523263
   1 C :   -0.244379
   2 C :    0.053927
   3 H :    0.185839
   4 C :   -0.505688
   5 Cl:   -0.276165
   6 H :    0.159467
   7 H :    0.159469
   8 H :    0.161187
   9 H :    0.159446
  10 H :    0.163046
  11 H :    0.170033
  12 H :    0.169716
  13 H :    0.167366
Sum of atomic charges:   -0.0000000

LOEWDIN ATOMIC CHARGES
----------------------
   0 C :   -0.436176
   1 C :   -0.324679
   2 C :   -0.247316
   3 H :    0.169668
   4 C :   -0.430477
   5 Cl:   -0.024612
   6 H :    0.155464
   7 H :    0.154609
   8 H :    0.155946
   9 H :    0.170128
  10 H :    0.164547
  11 H :    0.167797
  12 H :    0.161706
  13 H :    0.163394

  Mayer bond orders larger than 0.100000
B(  0-C ,  1-C ) :   0.8989 B(  0-C ,  6-H ) :   0.9809 B(  0-C ,  7-H ) :   0.9728
B(  0-C ,  8-H ) :   0.9701 B(  1-C ,  2-C ) :   0.9270 B(  1-C ,  9-H ) :   0.9503
B(  1-C , 10-H ) :   0.9642 B(  2-C ,  3-H ) :   0.9449 B(  2-C ,  4-C ) :   0.9106
B(  2-C ,  5-Cl) :   0.8591 B(  4-C , 11-H ) :   0.9618 B(  4-C , 12-H ) :   0.9676
B(  4-C , 13-H ) :   0.9747

Dispersion correction           -0.003389909
FINAL SINGLE POINT ENERGY      -617.976201549808

DIPOLE MOMENT
-------------

Method             : SCF
Type of density    : Electron Density
Multiplicity       :   1
Irrep              :   0
Energy             :  -617.9814624218244035 Eh
Relativity type    :
Basis              : AO
                                X                 Y                 Z
Electronic contribution:     -6.685984840       6.238779505      -0.161422264
Nuclear contribution   :      7.280042911      -7.291839379       0.369323005
                        -----------------------------------------
Total Dipole Moment    :      0.594058071      -1.053059874       0.207900741
                        -----------------------------------------
Magnitude (a.u.)       :      1.226810013
Magnitude (Debye)      :      3.118303237

Rotational constants in cm-1:             0.153209             0.104953             0.067623
Rotational constants in MHz :          4593.097441          3146.403015          2027.300459

                             ****ORCA TERMINATED NORMALLY****
TOTAL RUN TIME: 0 days 0 hours 0 minutes 15 seconds 639 msec
