                         Program Version 6.0.0  -   RELEASE  -
|  1> ! pbe def2-sv(p) def2/J RI DEFGRID1 loosescf d4 GCP(DFT/SV(P)) printgap
|  2> %output
|  3>     printlevel normal
|  4> end
|  5> * xyz 0 1
|  6> C -2.2164503497 -0.6535226399 -0.8893024475
|  7> C -1.1606300156 -0.6108089576 0.2275259947
|  8> H -1.5636175136 -1.0497677639 1.15587677
|  9> C -0.7542082655 0.8336995891 0.569049997
| 10> H -1.6227402007 1.473058837 0.3479033222
| 11> C 0.4413105421 1.3023878997 -0.2859862193
| 12> H 0.818251468 2.2504108671 0.1266748358
| 13> C 1.6165841299 0.3106299602 -0.2106783166
| 14> H 1.9681834238 0.152123695 -1.2419835742
| 15> C 1.1570590038 -1.0485651609 0.3588537408
| 16> H 1.0687581143 -0.9683864631 1.4540653259
| 17> O -0.0757921613 -1.4067505072 -0.2180053428
| 18> O 2.0726236252 -2.054159072 0.1020848624
| 19> O 2.6290225256 0.8803559788 0.5796925511
| 20> O 0.084549184 1.4561235168 -1.6376195541
| 21> O -0.4591008997 0.8780712636 1.946888407
| 22> O -3.3826893223 0.0548185272 -0.5645703091
| 23> H -2.4266805193 -1.7032172815 -1.1195821834
| 24> H -1.7955676386 -0.1803310416 -1.7785513899
| 25> H 1.9526675251 -2.3625652094 -0.809983723
| 26> H 3.3439831528 0.2364882316 0.6913602727
| 27> H -0.4981535396 2.223025894 -1.7361350408
| 28> H -0.2508944965 1.7853082071 2.2129683411
| 29> H -3.862715333 -0.4103602498 0.1354048714
| 30> *
| 31>
| 32>                          ****END OF INPUT****

CARTESIAN COORDINATES (ANGSTROEM)
---------------------------------
  C     -2.216450   -0.653523   -0.889302
  C     -1.160630   -0.610809    0.227526
  H     -1.563618   -1.049768    1.155877
  C     -0.754208    0.833700    0.569050
  H     -1.622740    1.473059    0.347903
  C      0.441311    1.302388   -0.285986
  H      0.818251    2.250411    0.126675
  C      1.616584    0.310630   -0.210678
  H      1.968183    0.152124   -1.241984
  C      1.157059   -1.048565    0.358854
  H      1.068758   -0.968386    1.454065
  O     -0.075792   -1.406751   -0.218005
  O      2.072624   -2.054159    0.102085
  O      2.629023    0.880356    0.579693
  O      0.084549    1.456124   -1.637620
  O     -0.459101    0.878071    1.946888
  O     -3.382689    0.054819   -0.564570
  H     -2.426681   -1.703217   -1.119582
  H     -1.795568   -0.180331   -1.778551
  H      1.952668   -2.362565   -0.809984
  H      3.343983    0.236488    0.691360
  H     -0.498154    2.223026   -1.736135
  H     -0.250894    1.785308    2.212968
  H     -3.862715   -0.410360    0.135405

 Total Charge           Charge          ....    0
 Multiplicity           Mult            ....    1
 Number of Electrons    NEL             ....   96
 Basis Dimension        Dim             ....  192

ORBITAL ENERGIES
----------------

  NO   OCC          E(Eh)            E(eV)
   0   2.0000     -18.764494      -510.6078
   1   2.0000     -18.760779      -510.5068
   2   2.0000     -18.756989      -510.4036
   3   2.0000     -18.756265      -510.3839
   4   2.0000     -18.755190      -510.3547
   5   2.0000     -18.747549      -510.1468
   6   2.0000      -9.974566      -271.4217
   7   2.0000      -9.944444      -270.6021
   8   2.0000      -9.942002      -270.5356
   9   2.0000      -9.941772      -270.5294
  10   2.0000      -9.932020      -270.2640
  11   2.0000      -9.928859      -270.1780
  12   2.0000      -0.979120       -26.6432
  13   2.0000      -0.942542       -25.6479
  14   2.0000      -0.932632       -25.3782
  15   2.0000      -0.928768       -25.2731
  16   2.0000      -0.922394       -25.0996
  17   2.0000      -0.908392       -24.7186
  18   2.0000      -0.696226       -18.9453
  19   2.0000      -0.686211       -18.6728
  20   2.0000      -0.608702       -16.5636
  21   2.0000      -0.595011       -16.1911
  22   2.0000      -0.558261       -15.1911
  23   2.0000      -0.521781       -14.1984
  24   2.0000      -0.502260       -13.6672
  25   2.0000      -0.485387       -13.2081
  26   2.0000      -0.471917       -12.8415
  27   2.0000      -0.462497       -12.5852
  28   2.0000      -0.453871       -12.3505
  29   2.0000      -0.431948       -11.7539
  30   2.0000      -0.408957       -11.1283
  31   2.0000      -0.386219       -10.5095
  32   2.0000      -0.382967       -10.4211
  33   2.0000      -0.371392       -10.1061
  34   2.0000      -0.351974        -9.5777
  35   2.0000      -0.351510        -9.5651
  36   2.0000      -0.327196        -8.9035
  37   2.0000      -0.312729        -8.5098
  38   2.0000      -0.307012        -8.3542
  39   2.0000      -0.288583        -7.8528
  40   2.0000      -0.284311        -7.7365
  41   2.0000      -0.276159        -7.5147
  42   2.0000      -0.250301        -6.8110
  43   2.0000      -0.241949        -6.5838
  44   2.0000      -0.226133        -6.1534
  45   2.0000      -0.220959        -6.0126
  46   2.0000      -0.214619        -5.8401
  47   2.0000      -0.195041        -5.3073
  48   0.0000       0.014720         0.4005
  49   0.0000       0.020723         0.5639
  50   0.0000       0.027472         0.7476
  51   0.0000       0.035808         0.9744
  52   0.0000       0.062337         1.6963

MULLIKEN ATOMIC CHARGES
-----------------------
   0 C :    0.041278
   1 C :    0.049401
   2 H :    0.066696
   3 C :   -0.027248
   4 H :    0.063907
   5 C :    0.071012
   6 H :    0.059224
   7 C :    0.079826
   8 H :    0.046167
   9 C :    0.160620
  10 H :    0.070426
  11 O :   -0.316910
  12 O :   -0.390210
  13 O :   -0.420149
  14 O :   -0.404780
  15 O :   -0.406701
  16 O :   -0.430078
  17 H :    0.085909
  18 H :    0.087646
  19 H :    0.301705
  20 H :    0.302412
  21 H :    0.306628
  22 H :    0.302798
  23 H :    0.300420
Sum of atomic charges:   -0.0000000

LOEWDIN ATOMIC CHARGES
----------------------
   0 C :   -0.135210
   1 C :   -0.058754
   2 H :    0.103783
   3 C :   -0.087693
   4 H :    0.101540
   5 C :   -0.067990
   6 H :    0.102162
   7 C :   -0.082059
   8 H :    0.103715
   9 C :   -0.010988
  10 H :    0.102143
  11 O :   -0.154977
  12 O :   -0.299893
  13 O :   -0.320647
  14 O :   -0.307363
  15 O :   -0.313387
  16 O :   -0.328379
  17 H :    0.102857
  18 H :    0.115606
  19 H :    0.286657
  20 H :    0.286250
  21 H :    0.289252
  22 H :    0.286948
  23 H :    0.286427

  Mayer bond orders larger than 0.100000
B(  0-C ,  1-C ) :   1.0372 B(  0-C , 16-O ) :   1.0559 B(  0-C , 17-H ) :   0.9195
B(  0-C , 18-H ) :   0.9024 B(  1-C ,  2-H ) :   0.8972 B(  1-C ,  3-C ) :   0.9710
B(  1-C , 11-O ) :   0.9937 B(  3-C ,  4-H ) :   0.8857 B(  3-C ,  5-C ) :   1.0107
B(  3-C , 15-O ) :   1.0484 B(  5-C ,  6-H ) :   0.8875 B(  5-C ,  7-C ) :   0.9534
B(  5-C , 14-O ) :   1.0593 B(  7-C ,  8-H ) :   0.8674 B(  7-C ,  9-C ) :   1.0183
B(  7-C , 13-O ) :   1.0737 B(  9-C , 10-H ) :   0.8633 B(  9-C , 11-O ) :   1.0345
B(  9-C , 12-O ) :   1.1140 B( 12-O , 19-H ) :   0.8430 B( 13-O , 20-H ) :   0.8409
B( 14-O , 21-H ) :   0.8402 B( 15-O , 22-H ) :   0.8442 B( 16-O , 23-H ) :   0.8507

Dispersion correction           -0.024595562
FINAL SINGLE POINT ENERGY      -685.687754537236

DIPOLE MOMENT
-------------

Method             : SCF
Type of density    : Electron Density
Multiplicity       :   1
Irrep              :   0
Energy             :  -685.8172699613111263 Eh
Relativity type    :
Basis              : AO
                                X                 Y                 Z
Electronic contribution:      2.291641942      -0.935590059       0.547641333
Nuclear contribution   :     -2.678296902       1.353557266      -0.524146495
                        -----------------------------------------
Total Dipole Moment    :     -0.386654960       0.417967207       0.023494839
                        -----------------------------------------
Magnitude (a.u.)       :      0.569868978
Magnitude (Debye)      :      1.448491828

Rotational constants in cm-1:             0.044624             0.024086             0.021222
Rotational constants in MHz :          1337.794816           722.069188           636.207216

                             ****ORCA TERMINATED NORMALLY****
TOTAL RUN TIME: 0 days 0 hours 0 minutes 12 seconds 91 msec
