                         Program Version 6.0.0  -   RELEASE  -
|  1> ! pbe def2-sv(p) def2/J RI DEFGRID1 loosescf d4 GCP(DFT/SV(P)) printgap
|  2> %output
|  3>     printlevel normal
|  4> end
|  5> * xyz 0 1
|  6> C -2.549125733 -0.6703403376 -0.3782753931
|  7> C -1.1738452303 -0.3105810711 0.1983552646
|  8> H -1.2360870307 -0.2506397285 1.2975336806
|  9> C -0.698022416 1.052191123 -0.3249466654
| 10> H -0.6804536997 1.0275016301 -1.4249895064
| 11> C 0.7284622069 1.3197237834 0.1723247831
| 12> H 0.699104932 1.4297855518 1.2707913627
| 13> C 1.6518319926 0.1453211691 -0.1878216114
| 14> H 1.7355225685 0.0682391631 -1.2772663827
| 15> C 1.0338405962 -1.1619272879 0.3356162725
| 16> H 0.9889345249 -1.1149913303 1.449344179
| 17> O -0.2677559425 -1.3327658946 -0.167196171
| 18> O 1.7996060161 -2.2327359327 -0.0769776282
| 19> O 2.9530583482 0.3748471643 0.2828984646
| 20> O 1.1773601964 2.5202283517 -0.4078683111
| 21> O -1.5905949658 2.0329211194 0.1335830971
| 22> O -3.1699863741 -1.7391501102 0.2842509341
| 23> H -2.4134941615 -0.9961750185 -1.410978638
| 24> H -3.1707322379 0.2312437475 -0.3544250234
| 25> H 1.2502041496 -3.032766155 -0.0844910179
| 26> H 3.0141484099 0.1673021437 1.2267332755
| 27> H 2.1433583514 2.5579015032 -0.3315361283
| 28> H -1.2414020536 2.9022858171 -0.1168016258
| 29> H -3.4038939028 -1.4721835709 1.1847825859
| 30> *
| 31>
| 32>                          ****END OF INPUT****

CARTESIAN COORDINATES (ANGSTROEM)
---------------------------------
  C     -2.549126   -0.670340   -0.378275
  C     -1.173845   -0.310581    0.198355
  H     -1.236087   -0.250640    1.297534
  C     -0.698022    1.052191   -0.324947
  H     -0.680454    1.027502   -1.424990
  C      0.728462    1.319724    0.172325
  H      0.699105    1.429786    1.270791
  C      1.651832    0.145321   -0.187822
  H      1.735523    0.068239   -1.277266
  C      1.033841   -1.161927    0.335616
  H      0.988935   -1.114991    1.449344
  O     -0.267756   -1.332766   -0.167196
  O      1.799606   -2.232736   -0.076978
  O      2.953058    0.374847    0.282898
  O      1.177360    2.520228   -0.407868
  O     -1.590595    2.032921    0.133583
  O     -3.169986   -1.739150    0.284251
  H     -2.413494   -0.996175   -1.410979
  H     -3.170732    0.231244   -0.354425
  H      1.250204   -3.032766   -0.084491
  H      3.014148    0.167302    1.226733
  H      2.143358    2.557902   -0.331536
  H     -1.241402    2.902286   -0.116802
  H     -3.403894   -1.472184    1.184783

 Total Charge           Charge          ....    0
 Multiplicity           Mult            ....    1
 Number of Electrons    NEL             ....   96
 Basis Dimension        Dim             ....  192

ORBITAL ENERGIES
----------------

  NO   OCC          E(Eh)            E(eV)
   0   2.0000     -18.778260      -510.9824
   1   2.0000     -18.765955      -510.6476
   2   2.0000     -18.761790      -510.5343
   3   2.0000     -18.757061      -510.4056
   4   2.0000     -18.756741      -510.3969
   5   2.0000     -18.745491      -510.0907
   6   2.0000      -9.994637      -271.9679
   7   2.0000      -9.948523      -270.7131
   8   2.0000      -9.946214      -270.6502
   9   2.0000      -9.945546      -270.6321
  10   2.0000      -9.944519      -270.6041
  11   2.0000      -9.929694      -270.2007
  12   2.0000      -0.990533       -26.9538
  13   2.0000      -0.951673       -25.8963
  14   2.0000      -0.941133       -25.6095
  15   2.0000      -0.925233       -25.1769
  16   2.0000      -0.920181       -25.0394
  17   2.0000      -0.914678       -24.8897
  18   2.0000      -0.708350       -19.2752
  19   2.0000      -0.695452       -18.9242
  20   2.0000      -0.619464       -16.8565
  21   2.0000      -0.583958       -15.8903
  22   2.0000      -0.566868       -15.4253
  23   2.0000      -0.540930       -14.7194
  24   2.0000      -0.511303       -13.9132
  25   2.0000      -0.493411       -13.4264
  26   2.0000      -0.469915       -12.7870
  27   2.0000      -0.463622       -12.6158
  28   2.0000      -0.453998       -12.3539
  29   2.0000      -0.439153       -11.9500
  30   2.0000      -0.423298       -11.5185
  31   2.0000      -0.395806       -10.7704
  32   2.0000      -0.394048       -10.7226
  33   2.0000      -0.382272       -10.4021
  34   2.0000      -0.357509        -9.7283
  35   2.0000      -0.351833        -9.5739
  36   2.0000      -0.330867        -9.0034
  37   2.0000      -0.314811        -8.5665
  38   2.0000      -0.308828        -8.4036
  39   2.0000      -0.297895        -8.1061
  40   2.0000      -0.290375        -7.9015
  41   2.0000      -0.273528        -7.4431
  42   2.0000      -0.256102        -6.9689
  43   2.0000      -0.248726        -6.7682
  44   2.0000      -0.236393        -6.4326
  45   2.0000      -0.225463        -6.1352
  46   2.0000      -0.211905        -5.7662
  47   2.0000      -0.207168        -5.6373
  48   0.0000       0.011128         0.3028
  49   0.0000       0.021894         0.5958
  50   0.0000       0.031823         0.8660
  51   0.0000       0.042092         1.1454
  52   0.0000       0.052853         1.4382

MULLIKEN ATOMIC CHARGES
-----------------------
   0 C :    0.088043
   1 C :    0.003459
   2 H :    0.039104
   3 C :    0.049017
   4 H :    0.059711
   5 C :    0.068432
   6 H :    0.034634
   7 C :    0.037769
   8 H :    0.074803
   9 C :    0.181880
  10 H :    0.017622
  11 O :   -0.304918
  12 O :   -0.373668
  13 O :   -0.411213
  14 O :   -0.425310
  15 O :   -0.418600
  16 O :   -0.431277
  17 H :    0.085397
  18 H :    0.094091
  19 H :    0.310790
  20 H :    0.303227
  21 H :    0.308121
  22 H :    0.314242
  23 H :    0.294644
Sum of atomic charges:    0.0000000

LOEWDIN ATOMIC CHARGES
----------------------
   0 C :   -0.127503
   1 C :   -0.066115
   2 H :    0.098011
   3 C :   -0.068696
   4 H :    0.107728
   5 C :   -0.085407
   6 H :    0.094101
   7 C :   -0.093192
   8 H :    0.124852
   9 C :    0.000316
  10 H :    0.069283
  11 O :   -0.143551
  12 O :   -0.297002
  13 O :   -0.305482
  14 O :   -0.328665
  15 O :   -0.318059
  16 O :   -0.332355
  17 H :    0.119999
  18 H :    0.108113
  19 H :    0.293117
  20 H :    0.288072
  21 H :    0.286992
  22 H :    0.292827
  23 H :    0.282618

  Mayer bond orders larger than 0.100000
B(  0-C ,  1-C ) :   1.0354 B(  0-C , 16-O ) :   1.0874 B(  0-C , 17-H ) :   0.9045
B(  0-C , 18-H ) :   0.9174 B(  1-C ,  2-H ) :   0.8680 B(  1-C ,  3-C ) :   0.9978
B(  1-C , 11-O ) :   0.9927 B(  3-C ,  4-H ) :   0.8733 B(  3-C ,  5-C ) :   1.0104
B(  3-C , 15-O ) :   1.0548 B(  5-C ,  6-H ) :   0.8670 B(  5-C ,  7-C ) :   0.9907
B(  5-C , 14-O ) :   1.0918 B(  7-C ,  8-H ) :   0.8582 B(  7-C ,  9-C ) :   0.9832
B(  7-C , 13-O ) :   1.0318 B(  9-C , 10-H ) :   0.8759 B(  9-C , 11-O ) :   1.0184
B(  9-C , 12-O ) :   1.1908 B( 12-O , 19-H ) :   0.8362 B( 13-O , 20-H ) :   0.8442
B( 14-O , 21-H ) :   0.8283 B( 15-O , 22-H ) :   0.8360 B( 16-O , 23-H ) :   0.8543

Dispersion correction           -0.023546166
FINAL SINGLE POINT ENERGY      -685.696079787383

DIPOLE MOMENT
-------------

Method             : SCF
Type of density    : Electron Density
Multiplicity       :   1
Irrep              :   0
Energy             :  -685.8254637130576157 Eh
Relativity type    :
Basis              : AO
                                X                 Y                 Z
Electronic contribution:      2.297287998      -1.068762180      -0.449814074
Nuclear contribution   :     -2.158308910       1.418096719       1.341081932
                        -----------------------------------------
Total Dipole Moment    :      0.138979089       0.349334538       0.891267858
                        -----------------------------------------
Magnitude (a.u.)       :      0.967320114
Magnitude (Debye)      :      2.458732330

Rotational constants in cm-1:             0.039821             0.025427             0.016267
Rotational constants in MHz :          1193.790272           762.279818           487.673573

                             ****ORCA TERMINATED NORMALLY****
TOTAL RUN TIME: 0 days 0 hours 0 minutes 11 seconds 932 msec
