                         Program Version 6.0.0  -   RELEASE  -
|  1> ! wb97x-v def2-tzvp def2/J RIJCOSX DEFGRID2 scfconv7 GCP(DFT/TZ) printgap
|  2> %output
|  3>     printlevel normal
|  4> end
|  5> * xyz 0 1
|  6> C -3.4365135602687173 0.6200331490959153 0.09114274123178684
|  7> C -1.9411038633420798 0.5023600414034735 0.08218487837129491
|  8> C -1.1356451329803094 1.5220505049229724 -0.2385662272941576
|  9> C 0.3606590304917545 1.447179772571679 -0.2864085575772172
| 10> C 0.8699367948629002 -0.003424783428409256 -0.29659313841948465
| 11> H 0.6203472328992106 -0.4320594381063663 -1.2751521809282493
| 12> C 0.11243615117067483 -0.7906366738918659 0.7792754359940204
| 13> C -1.3761519815343342 -0.8433577652824306 0.47752547375770943
| 14> H -1.9127612454776026 -1.1984045137195405 1.370204841673246
| 15> O -1.5713741475199379 -1.8254804874614854 -0.5832302754044112
| 16> C 2.3714551850743826 -0.07019838076730892 -0.13492837335517388
| 17> C 3.158262788108964 -0.3484656781867016 -1.1799457069482158
| 18> C 2.9380875349942945 0.19359077596312996 1.2304344614985903
| 19> H -3.900653323391627 -0.09306779339353788 -0.6029774709711387
| 20> H -3.76035411398372 1.6241329361720847 -0.19574235293758435
| 21> H -3.8382860541745774 0.39443592731045407 1.0870203719217204
| 22> H -1.5822807677386674 2.485468089022272 -0.484877721011551
| 23> H 0.7261210380541896 1.9725875592607442 -1.1774453071598627
| 24> H 0.7786072228476238 1.9900084196289176 0.5744816022819689
| 25> H 0.4975870850057442 -1.8129112336787365 0.8667720345154127
| 26> H 0.24543266808221958 -0.3048195887917753 1.7536413210703976
| 27> H -2.5212942930987685 -1.9003563948523616 -0.7417232202710634
| 28> H 4.240884180366213 -0.3740087517084351 -1.0838374982556738
| 29> H 2.7377295878923515 -0.5513955741699531 -2.161972670246398
| 30> H 2.5574273726808787 1.1307528027466254 1.6525283065524778
| 31> H 2.6529701221263613 -0.6017924467202581 1.9294000314621869
| 32> H 4.029341841720527 0.24482577664831823 1.2000650213731296
| 33> *
| 34>
| 35>                          ****END OF INPUT****

CARTESIAN COORDINATES (ANGSTROEM)
---------------------------------
  C     -3.436514    0.620033    0.091143
  C     -1.941104    0.502360    0.082185
  C     -1.135645    1.522051   -0.238566
  C      0.360659    1.447180   -0.286409
  C      0.869937   -0.003425   -0.296593
  H      0.620347   -0.432059   -1.275152
  C      0.112436   -0.790637    0.779275
  C     -1.376152   -0.843358    0.477525
  H     -1.912761   -1.198405    1.370205
  O     -1.571374   -1.825480   -0.583230
  C      2.371455   -0.070198   -0.134928
  C      3.158263   -0.348466   -1.179946
  C      2.938088    0.193591    1.230434
  H     -3.900653   -0.093068   -0.602977
  H     -3.760354    1.624133   -0.195742
  H     -3.838286    0.394436    1.087020
  H     -1.582281    2.485468   -0.484878
  H      0.726121    1.972588   -1.177445
  H      0.778607    1.990008    0.574482
  H      0.497587   -1.812911    0.866772
  H      0.245433   -0.304820    1.753641
  H     -2.521294   -1.900356   -0.741723
  H      4.240884   -0.374009   -1.083837
  H      2.737730   -0.551396   -2.161973
  H      2.557427    1.130753    1.652528
  H      2.652970   -0.601792    1.929400
  H      4.029342    0.244826    1.200065

 Total Charge           Charge          ....    0
 Multiplicity           Mult            ....    1
 Number of Electrons    NEL             ....   84
 Basis Dimension        Dim             ....  437

ORBITAL ENERGIES
----------------

  NO   OCC          E(Eh)            E(eV)
   0   2.0000     -21.667664      -589.6071
   1   2.0000     -12.098927      -329.2285
   2   2.0000     -12.052421      -327.9630
   3   2.0000     -12.050709      -327.9165
   4   2.0000     -12.047421      -327.8270
   5   2.0000     -12.046957      -327.8144
   6   2.0000     -12.045768      -327.7820
   7   2.0000     -12.044310      -327.7423
   8   2.0000     -12.040567      -327.6405
   9   2.0000     -12.038743      -327.5909
  10   2.0000     -12.026836      -327.2668
  11   2.0000      -1.663107       -45.2554
  12   2.0000      -1.363888       -37.1133
  13   2.0000      -1.324531       -36.0423
  14   2.0000      -1.269405       -34.5423
  15   2.0000      -1.256994       -34.2046
  16   2.0000      -1.190611       -32.3982
  17   2.0000      -1.184310       -32.2267
  18   2.0000      -1.129737       -30.7417
  19   2.0000      -1.093425       -29.7536
  20   2.0000      -1.052685       -28.6450
  21   2.0000      -0.997124       -27.1331
  22   2.0000      -0.965038       -26.2600
  23   2.0000      -0.937172       -25.5017
  24   2.0000      -0.933549       -25.4031
  25   2.0000      -0.912284       -24.8245
  26   2.0000      -0.899936       -24.4885
  27   2.0000      -0.890066       -24.2199
  28   2.0000      -0.872967       -23.7546
  29   2.0000      -0.855227       -23.2719
  30   2.0000      -0.840556       -22.8727
  31   2.0000      -0.835532       -22.7360
  32   2.0000      -0.831001       -22.6127
  33   2.0000      -0.819721       -22.3057
  34   2.0000      -0.815392       -22.1880
  35   2.0000      -0.806977       -21.9590
  36   2.0000      -0.802706       -21.8428
  37   2.0000      -0.775353       -21.0984
  38   2.0000      -0.766300       -20.8521
  39   2.0000      -0.757812       -20.6211
  40   2.0000      -0.647559       -17.6210
  41   2.0000      -0.638311       -17.3693
  42   0.0000      -0.228275        -6.2117
  43   0.0000      -0.196939        -5.3590
  44   0.0000      -0.118647        -3.2286
  45   0.0000      -0.059332        -1.6145
  46   0.0000      -0.047467        -1.2916

MULLIKEN ATOMIC CHARGES
-----------------------
   0 C :   -0.343071
   1 C :   -0.061191
   2 C :   -0.199344
   3 C :   -0.160441
   4 C :    0.016642
   5 H :    0.088713
   6 C :   -0.223896
   7 C :    0.145908
   8 H :    0.082914
   9 O :   -0.438309
  10 C :    0.025718
  11 C :   -0.292343
  12 C :   -0.382152
  13 H :    0.099090
  14 H :    0.118590
  15 H :    0.119851
  16 H :    0.107592
  17 H :    0.110541
  18 H :    0.090009
  19 H :    0.115737
  20 H :    0.104978
  21 H :    0.291106
  22 H :    0.106028
  23 H :    0.113561
  24 H :    0.116278
  25 H :    0.130892
  26 H :    0.116599
Sum of atomic charges:    0.0000000

LOEWDIN ATOMIC CHARGES
----------------------
   0 C :   -0.261758
   1 C :   -0.189810
   2 C :   -0.129557
   3 C :   -0.210279
   4 C :   -0.203946
   5 H :    0.165432
   6 C :   -0.196745
   7 C :   -0.283576
   8 H :    0.137614
   9 O :   -0.036035
  10 C :   -0.204372
  11 C :   -0.192787
  12 C :   -0.255198
  13 H :    0.118581
  14 H :    0.126240
  15 H :    0.124765
  16 H :    0.139514
  17 H :    0.144221
  18 H :    0.142013
  19 H :    0.144904
  20 H :    0.144895
  21 H :    0.162972
  22 H :    0.117606
  23 H :    0.120808
  24 H :    0.121998
  25 H :    0.127456
  26 H :    0.125047

  Mayer bond orders larger than 0.100000
B(  0-C ,  1-C ) :   0.9525 B(  0-C , 13-H ) :   0.9669 B(  0-C , 14-H ) :   0.9907
B(  0-C , 15-H ) :   0.9802 B(  1-C ,  2-C ) :   1.8963 B(  1-C ,  7-C ) :   0.9911
B(  2-C ,  3-C ) :   0.9883 B(  2-C , 16-H ) :   0.9604 B(  3-C ,  4-C ) :   1.0255
B(  3-C , 17-H ) :   0.9709 B(  3-C , 18-H ) :   0.9469 B(  4-C ,  5-H ) :   0.9817
B(  4-C ,  6-C ) :   0.9683 B(  4-C , 10-C ) :   0.8793 B(  6-C ,  7-C ) :   0.9732
B(  6-C , 19-H ) :   0.9669 B(  6-C , 20-H ) :   0.9600 B(  7-C ,  8-H ) :   0.9920
B(  7-C ,  9-O ) :   1.0616 B(  9-O , 21-H ) :   0.9071 B( 10-C , 11-C ) :   1.9384
B( 10-C , 12-C ) :   0.9565 B( 11-C , 22-H ) :   0.9657 B( 11-C , 23-H ) :   0.9691
B( 12-C , 24-H ) :   0.9762 B( 12-C , 25-H ) :   0.9722 B( 12-C , 26-H ) :   0.9828

FINAL SINGLE POINT ENERGY      -465.918103002229

DIPOLE MOMENT
-------------

Method             : SCF
Type of density    : Electron Density
Multiplicity       :   1
Irrep              :   0
Energy             :  -465.9358779575287599 Eh
Relativity type    :
Basis              : AO
                                X                 Y                 Z
Electronic contribution:     -2.026440380      -1.972310159      -2.142445326
Nuclear contribution   :      1.497724258       2.371291459       2.564180083
                        -----------------------------------------
Total Dipole Moment    :     -0.528716122       0.398981300       0.421734757
                        -----------------------------------------
Magnitude (a.u.)       :      0.785230553
Magnitude (Debye)      :      1.995897449

Rotational constants in cm-1:             0.070655             0.022178             0.020040
Rotational constants in MHz :          2118.193597           664.880645           600.771343

                             ****ORCA TERMINATED NORMALLY****
TOTAL RUN TIME: 0 days 0 hours 5 minutes 26 seconds 505 msec
