                         Program Version 6.0.0  -   RELEASE  -
|  1> ! wb97x-v def2-tzvp def2/J RIJCOSX DEFGRID2 scfconv7 GCP(DFT/TZ) printgap
|  2> %output
|  3>     printlevel normal
|  4> end
|  5> %cpcm
|  6>     smd true
|  7>     smdsolvent "water"
|  8> end
|  9> * xyz 0 1
| 10> C -3.4365135602687173 0.6200331490959153 0.09114274123178684
| 11> C -1.9411038633420798 0.5023600414034735 0.08218487837129491
| 12> C -1.1356451329803094 1.5220505049229724 -0.2385662272941576
| 13> C 0.3606590304917545 1.447179772571679 -0.2864085575772172
| 14> C 0.8699367948629002 -0.003424783428409256 -0.29659313841948465
| 15> H 0.6203472328992106 -0.4320594381063663 -1.2751521809282493
| 16> C 0.11243615117067483 -0.7906366738918659 0.7792754359940204
| 17> C -1.3761519815343342 -0.8433577652824306 0.47752547375770943
| 18> H -1.9127612454776026 -1.1984045137195405 1.370204841673246
| 19> O -1.5713741475199379 -1.8254804874614854 -0.5832302754044112
| 20> C 2.3714551850743826 -0.07019838076730892 -0.13492837335517388
| 21> C 3.158262788108964 -0.3484656781867016 -1.1799457069482158
| 22> C 2.9380875349942945 0.19359077596312996 1.2304344614985903
| 23> H -3.900653323391627 -0.09306779339353788 -0.6029774709711387
| 24> H -3.76035411398372 1.6241329361720847 -0.19574235293758435
| 25> H -3.8382860541745774 0.39443592731045407 1.0870203719217204
| 26> H -1.5822807677386674 2.485468089022272 -0.484877721011551
| 27> H 0.7261210380541896 1.9725875592607442 -1.1774453071598627
| 28> H 0.7786072228476238 1.9900084196289176 0.5744816022819689
| 29> H 0.4975870850057442 -1.8129112336787365 0.8667720345154127
| 30> H 0.24543266808221958 -0.3048195887917753 1.7536413210703976
| 31> H -2.5212942930987685 -1.9003563948523616 -0.7417232202710634
| 32> H 4.240884180366213 -0.3740087517084351 -1.0838374982556738
| 33> H 2.7377295878923515 -0.5513955741699531 -2.161972670246398
| 34> H 2.5574273726808787 1.1307528027466254 1.6525283065524778
| 35> H 2.6529701221263613 -0.6017924467202581 1.9294000314621869
| 36> H 4.029341841720527 0.24482577664831823 1.2000650213731296
| 37> *
| 38>
| 39>                          ****END OF INPUT****

CARTESIAN COORDINATES (ANGSTROEM)
---------------------------------
  C     -3.436514    0.620033    0.091143
  C     -1.941104    0.502360    0.082185
  C     -1.135645    1.522051   -0.238566
  C      0.360659    1.447180   -0.286409
  C      0.869937   -0.003425   -0.296593
  H      0.620347   -0.432059   -1.275152
  C      0.112436   -0.790637    0.779275
  C     -1.376152   -0.843358    0.477525
  H     -1.912761   -1.198405    1.370205
  O     -1.571374   -1.825480   -0.583230
  C      2.371455   -0.070198   -0.134928
  C      3.158263   -0.348466   -1.179946
  C      2.938088    0.193591    1.230434
  H     -3.900653   -0.093068   -0.602977
  H     -3.760354    1.624133   -0.195742
  H     -3.838286    0.394436    1.087020
  H     -1.582281    2.485468   -0.484878
  H      0.726121    1.972588   -1.177445
  H      0.778607    1.990008    0.574482
  H      0.497587   -1.812911    0.866772
  H      0.245433   -0.304820    1.753641
  H     -2.521294   -1.900356   -0.741723
  H      4.240884   -0.374009   -1.083837
  H      2.737730   -0.551396   -2.161973
  H      2.557427    1.130753    1.652528
  H      2.652970   -0.601792    1.929400
  H      4.029342    0.244826    1.200065

 Total Charge           Charge          ....    0
 Multiplicity           Mult            ....    1
 Number of Electrons    NEL             ....   84
 Basis Dimension        Dim             ....  437

ORBITAL ENERGIES
----------------

  NO   OCC          E(Eh)            E(eV)
   0   2.0000     -21.671318      -589.7065
   1   2.0000     -12.093623      -329.0842
   2   2.0000     -12.053398      -327.9896
   3   2.0000     -12.044927      -327.7591
   4   2.0000     -12.043879      -327.7306
   5   2.0000     -12.038956      -327.5967
   6   2.0000     -12.037595      -327.5596
   7   2.0000     -12.034656      -327.4796
   8   2.0000     -12.031919      -327.4052
   9   2.0000     -12.030407      -327.3640
  10   2.0000     -12.025080      -327.2191
  11   2.0000      -1.667224       -45.3675
  12   2.0000      -1.359551       -36.9953
  13   2.0000      -1.321402       -35.9572
  14   2.0000      -1.264514       -34.4092
  15   2.0000      -1.251710       -34.0608
  16   2.0000      -1.181688       -32.1554
  17   2.0000      -1.179827       -32.1047
  18   2.0000      -1.125178       -30.6177
  19   2.0000      -1.088594       -29.6221
  20   2.0000      -1.053212       -28.6593
  21   2.0000      -0.994568       -27.0636
  22   2.0000      -0.966062       -26.2879
  23   2.0000      -0.938674       -25.5426
  24   2.0000      -0.928593       -25.2683
  25   2.0000      -0.909591       -24.7512
  26   2.0000      -0.895694       -24.3731
  27   2.0000      -0.886283       -24.1170
  28   2.0000      -0.869698       -23.6657
  29   2.0000      -0.849852       -23.1257
  30   2.0000      -0.832493       -22.6533
  31   2.0000      -0.825716       -22.4689
  32   2.0000      -0.822164       -22.3722
  33   2.0000      -0.811547       -22.0833
  34   2.0000      -0.806336       -21.9415
  35   2.0000      -0.798442       -21.7267
  36   2.0000      -0.797222       -21.6935
  37   2.0000      -0.771034       -20.9809
  38   2.0000      -0.761285       -20.7156
  39   2.0000      -0.753000       -20.4902
  40   2.0000      -0.643450       -17.5092
  41   2.0000      -0.638142       -17.3647
  42   0.0000      -0.223624        -6.0851
  43   0.0000      -0.197883        -5.3847
  44   0.0000      -0.113272        -3.0823
  45   0.0000      -0.045762        -1.2452
  46   0.0000      -0.040224        -1.0946

MULLIKEN ATOMIC CHARGES
-----------------------
   0 C :   -0.385180
   1 C :   -0.111744
   2 C :   -0.246754
   3 C :   -0.167255
   4 C :    0.041370
   5 H :    0.084698
   6 C :   -0.243978
   7 C :    0.165682
   8 H :    0.116138
   9 O :   -0.552773
  10 C :   -0.022216
  11 C :   -0.389962
  12 C :   -0.421801
  13 H :    0.133409
  14 H :    0.137582
  15 H :    0.136377
  16 H :    0.146850
  17 H :    0.123059
  18 H :    0.119873
  19 H :    0.124330
  20 H :    0.130459
  21 H :    0.354597
  22 H :    0.147602
  23 H :    0.148912
  24 H :    0.143010
  25 H :    0.149432
  26 H :    0.138281
Sum of atomic charges:    0.0000000

LOEWDIN ATOMIC CHARGES
----------------------
   0 C :   -0.264024
   1 C :   -0.197095
   2 C :   -0.138551
   3 C :   -0.211245
   4 C :   -0.207843
   5 H :    0.161322
   6 C :   -0.199515
   7 C :   -0.279562
   8 H :    0.147638
   9 O :   -0.076987
  10 C :   -0.208766
  11 C :   -0.218818
  12 C :   -0.257465
  13 H :    0.128392
  14 H :    0.128829
  15 H :    0.129748
  16 H :    0.147132
  17 H :    0.146442
  18 H :    0.149442
  19 H :    0.143771
  20 H :    0.152539
  21 H :    0.184776
  22 H :    0.123529
  23 H :    0.125210
  24 H :    0.129757
  25 H :    0.132844
  26 H :    0.128500

  Mayer bond orders larger than 0.100000
B(  0-C ,  1-C ) :   0.9640 B(  0-C , 13-H ) :   0.9591 B(  0-C , 14-H ) :   0.9877
B(  0-C , 15-H ) :   0.9738 B(  1-C ,  2-C ) :   1.8860 B(  1-C ,  7-C ) :   0.9924
B(  2-C ,  3-C ) :   0.9843 B(  2-C , 16-H ) :   0.9632 B(  3-C ,  4-C ) :   1.0139
B(  3-C , 17-H ) :   0.9652 B(  3-C , 18-H ) :   0.9432 B(  4-C ,  5-H ) :   0.9843
B(  4-C ,  6-C ) :   0.9413 B(  4-C , 10-C ) :   0.8731 B(  6-C ,  7-C ) :   0.9601
B(  6-C , 19-H ) :   0.9734 B(  6-C , 20-H ) :   0.9588 B(  7-C ,  8-H ) :   0.9966
B(  7-C ,  9-O ) :   1.0166 B(  9-O , 21-H ) :   0.8717 B( 10-C , 11-C ) :   1.9168
B( 10-C , 12-C ) :   0.9681 B( 11-C , 22-H ) :   0.9688 B( 11-C , 23-H ) :   0.9685
B( 12-C , 24-H ) :   0.9699 B( 12-C , 25-H ) :   0.9651 B( 12-C , 26-H ) :   0.9792

FINAL SINGLE POINT ENERGY      -465.926760541691

DIPOLE MOMENT
-------------

Method             : SCF
Type of density    : Electron Density
Multiplicity       :   1
Irrep              :   0
Energy             :  -465.9445354969907953 Eh
Relativity type    :
Basis              : AO
                                X                 Y                 Z
Electronic contribution:     -2.286257369      -1.780314724      -1.819840037
Nuclear contribution   :      1.497724258       2.371291459       2.564180083
                        -----------------------------------------
Total Dipole Moment    :     -0.788533111       0.590976735       0.744340047
                        -----------------------------------------
Magnitude (a.u.)       :      1.234941324
Magnitude (Debye)      :      3.138971387

Rotational constants in cm-1:             0.070655             0.022178             0.020040
Rotational constants in MHz :          2118.193597           664.880645           600.771343

                             ****ORCA TERMINATED NORMALLY****
TOTAL RUN TIME: 0 days 0 hours 5 minutes 35 seconds 884 msec
