                         Program Version 6.0.0  -   RELEASE  -
|  1> ! pbe def2-sv(p) def2/J RI DEFGRID1 loosescf d4 GCP(DFT/SV(P)) printgap
|  2> %output
|  3>     printlevel normal
|  4> end
|  5> * xyz 0 1
|  6> C -1.7824351652 -1.015986028 -0.6734269022
|  7> C -1.0413020493 -0.4744956075 0.5633636663
|  8> H -1.6950444166 -0.5644642867 1.4402825363
|  9> C -0.6962811685 1.0164810604 0.4027474593
| 10> H -1.5439161041 1.4919233047 -0.1034807881
| 11> C 0.5600133218 1.2337621696 -0.4600397386
| 12> H 0.8825808124 2.2741707241 -0.291202064
| 13> C 1.704660558 0.3242105579 0.0281607281
| 14> H 2.5162386716 0.3462507889 -0.7134170331
| 15> C 1.2466771367 -1.1410675023 0.1479910896
| 16> H 1.9931064457 -1.6964706694 0.7423999511
| 17> O 0.0772552429 -1.2873141789 0.9089840933
| 18> O 1.1544148863 -1.6674521541 -1.1368795347
| 19> O 2.1296150402 0.8321387297 1.2682825914
| 20> O 0.2312384175 1.0243756104 -1.8052117506
| 21> O -0.5699112689 1.6591032019 1.6471374285
| 22> O -3.0528846703 -0.4357211262 -0.8255623815
| 23> H -1.8575671718 -2.1071247428 -0.5813503218
| 24> H -1.2246516809 -0.7658770087 -1.5773570557
| 25> H 0.9503041409 -2.6136254814 -1.0976105688
| 26> H 2.9171248625 0.3606801731 1.5767690609
| 27> H 0.9826285731 1.2531816283 -2.3707450544
| 28> H 0.2770815779 1.3980853273 2.0462432783
| 29> H -3.614054762 -0.6826470092 -0.0762125447
| 30> *
| 31>
| 32>                          ****END OF INPUT****

CARTESIAN COORDINATES (ANGSTROEM)
---------------------------------
  C     -1.782435   -1.015986   -0.673427
  C     -1.041302   -0.474496    0.563364
  H     -1.695044   -0.564464    1.440283
  C     -0.696281    1.016481    0.402747
  H     -1.543916    1.491923   -0.103481
  C      0.560013    1.233762   -0.460040
  H      0.882581    2.274171   -0.291202
  C      1.704661    0.324211    0.028161
  H      2.516239    0.346251   -0.713417
  C      1.246677   -1.141068    0.147991
  H      1.993106   -1.696471    0.742400
  O      0.077255   -1.287314    0.908984
  O      1.154415   -1.667452   -1.136880
  O      2.129615    0.832139    1.268283
  O      0.231238    1.024376   -1.805212
  O     -0.569911    1.659103    1.647137
  O     -3.052885   -0.435721   -0.825562
  H     -1.857567   -2.107125   -0.581350
  H     -1.224652   -0.765877   -1.577357
  H      0.950304   -2.613625   -1.097611
  H      2.917125    0.360680    1.576769
  H      0.982629    1.253182   -2.370745
  H      0.277082    1.398085    2.046243
  H     -3.614055   -0.682647   -0.076213

 Total Charge           Charge          ....    0
 Multiplicity           Mult            ....    1
 Number of Electrons    NEL             ....   96
 Basis Dimension        Dim             ....  192

ORBITAL ENERGIES
----------------

  NO   OCC          E(Eh)            E(eV)
   0   2.0000     -18.779343      -511.0119
   1   2.0000     -18.766068      -510.6507
   2   2.0000     -18.765688      -510.6403
   3   2.0000     -18.755495      -510.3630
   4   2.0000     -18.739986      -509.9409
   5   2.0000     -18.728785      -509.6361
   6   2.0000      -9.990981      -271.8684
   7   2.0000      -9.952206      -270.8133
   8   2.0000      -9.942926      -270.5608
   9   2.0000      -9.930450      -270.2213
  10   2.0000      -9.928141      -270.1584
  11   2.0000      -9.914101      -269.7764
  12   2.0000      -0.982069       -26.7235
  13   2.0000      -0.951823       -25.9004
  14   2.0000      -0.933319       -25.3969
  15   2.0000      -0.920493       -25.0479
  16   2.0000      -0.912378       -24.8271
  17   2.0000      -0.903287       -24.5797
  18   2.0000      -0.695677       -18.9303
  19   2.0000      -0.689524       -18.7629
  20   2.0000      -0.611102       -16.6289
  21   2.0000      -0.589828       -16.0500
  22   2.0000      -0.568112       -15.4591
  23   2.0000      -0.528078       -14.3697
  24   2.0000      -0.485244       -13.2042
  25   2.0000      -0.483269       -13.1504
  26   2.0000      -0.475488       -12.9387
  27   2.0000      -0.452513       -12.3135
  28   2.0000      -0.449077       -12.2200
  29   2.0000      -0.439060       -11.9474
  30   2.0000      -0.414655       -11.2833
  31   2.0000      -0.388915       -10.5829
  32   2.0000      -0.374463       -10.1897
  33   2.0000      -0.365252        -9.9390
  34   2.0000      -0.360306        -9.8044
  35   2.0000      -0.343703        -9.3526
  36   2.0000      -0.330840        -9.0026
  37   2.0000      -0.321901        -8.7594
  38   2.0000      -0.303963        -8.2712
  39   2.0000      -0.285658        -7.7731
  40   2.0000      -0.269928        -7.3451
  41   2.0000      -0.258468        -7.0333
  42   2.0000      -0.252367        -6.8672
  43   2.0000      -0.244031        -6.6404
  44   2.0000      -0.233189        -6.3454
  45   2.0000      -0.218597        -5.9483
  46   2.0000      -0.213523        -5.8103
  47   2.0000      -0.190543        -5.1849
  48   0.0000       0.004564         0.1242
  49   0.0000       0.012991         0.3535
  50   0.0000       0.030209         0.8220
  51   0.0000       0.033356         0.9077
  52   0.0000       0.071962         1.9582

MULLIKEN ATOMIC CHARGES
-----------------------
   0 C :    0.018082
   1 C :    0.011291
   2 H :    0.059047
   3 C :    0.075992
   4 H :    0.085145
   5 C :    0.036340
   6 H :    0.077549
   7 C :    0.011008
   8 H :    0.061525
   9 C :    0.206130
  10 H :    0.042525
  11 O :   -0.315711
  12 O :   -0.388402
  13 O :   -0.419301
  14 O :   -0.390583
  15 O :   -0.432118
  16 O :   -0.427643
  17 H :    0.057195
  18 H :    0.119785
  19 H :    0.305113
  20 H :    0.310123
  21 H :    0.303067
  22 H :    0.299948
  23 H :    0.293893
Sum of atomic charges:   -0.0000000

LOEWDIN ATOMIC CHARGES
----------------------
   0 C :   -0.151502
   1 C :   -0.074709
   2 H :    0.110287
   3 C :   -0.063929
   4 H :    0.125205
   5 C :   -0.069019
   6 H :    0.106514
   7 C :   -0.088480
   8 H :    0.102278
   9 C :   -0.010594
  10 H :    0.086879
  11 O :   -0.145952
  12 O :   -0.304377
  13 O :   -0.304275
  14 O :   -0.298697
  15 O :   -0.322485
  16 O :   -0.328066
  17 H :    0.087826
  18 H :    0.122684
  19 H :    0.287520
  20 H :    0.291924
  21 H :    0.287960
  22 H :    0.271710
  23 H :    0.281297

  Mayer bond orders larger than 0.100000
B(  0-C ,  1-C ) :   1.0276 B(  0-C , 16-O ) :   1.0445 B(  0-C , 17-H ) :   0.9131
B(  0-C , 18-H ) :   0.8941 B(  1-C ,  2-H ) :   0.8965 B(  1-C ,  3-C ) :   1.0003
B(  1-C , 11-O ) :   0.9795 B(  3-C ,  4-H ) :   0.8784 B(  3-C ,  5-C ) :   1.0022
B(  3-C , 15-O ) :   1.0585 B(  5-C ,  6-H ) :   0.9023 B(  5-C ,  7-C ) :   0.9781
B(  5-C , 14-O ) :   1.0873 B(  7-C ,  8-H ) :   0.8923 B(  7-C ,  9-C ) :   0.9670
B(  7-C , 13-O ) :   1.0234 B(  9-C , 10-H ) :   0.9026 B(  9-C , 11-O ) :   1.0818
B(  9-C , 12-O ) :   1.1374 B( 12-O , 19-H ) :   0.8346 B( 13-O , 20-H ) :   0.8390
B( 14-O , 21-H ) :   0.8415 B( 15-O , 22-H ) :   0.8212 B( 16-O , 23-H ) :   0.8521

Dispersion correction           -0.025766208
FINAL SINGLE POINT ENERGY      -685.691997525985

DIPOLE MOMENT
-------------

Method             : SCF
Type of density    : Electron Density
Multiplicity       :   1
Irrep              :   0
Energy             :  -685.8225986507292191 Eh
Relativity type    :
Basis              : AO
                                X                 Y                 Z
Electronic contribution:      0.884907127       0.299383876       1.034502890
Nuclear contribution   :      0.547284280      -1.223318804      -0.942658762
                        -----------------------------------------
Total Dipole Moment    :      1.432191408      -0.923934928       0.091844128
                        -----------------------------------------
Magnitude (a.u.)       :      1.706828440
Magnitude (Debye)      :      4.338413115

Rotational constants in cm-1:             0.040470             0.028684             0.024654
Rotational constants in MHz :          1213.269042           859.925623           739.097661

                             ****ORCA TERMINATED NORMALLY****
TOTAL RUN TIME: 0 days 0 hours 0 minutes 12 seconds 581 msec
