                         Program Version 6.0.0  -   RELEASE  -
|  1> ! r2scan-3c def2/J RI DEFGRID2 scfconv6 printgap
|  2> %output
|  3>     printlevel normal
|  4> end
|  5> * xyz 0 1
|  6> C 0.2353199146 1.3747108029 -0.0013662374
|  7> C 1.3082338529 0.483509006 -0.0009961972
|  8> C 1.0728522034 -0.8911041269 -0.0002289948
|  9> C -0.2353299819 -1.3745272863 -0.0001565595
| 10> C -1.3081968034 -0.483402519 -0.000404025
| 11> C -1.0729813972 0.8912810288 -0.000782335
| 12> Cl -2.3898078947 1.9847149084 -3.38912e-05
| 13> Cl -2.9135748001 -1.0768857439 0.0002194427
| 14> Cl -0.5243666983 -3.0614997437 0.0002669182
| 15> Cl 2.3894787551 -1.984724937 0.0001200155
| 16> Cl 2.9137972184 1.0765654596 7.13471e-05
| 17> Cl 0.5245080469 3.0616718784 0.0006890454
| 18> *
| 19>
| 20>                          ****END OF INPUT****

CARTESIAN COORDINATES (ANGSTROEM)
---------------------------------
  C      0.235320    1.374711   -0.001366
  C      1.308234    0.483509   -0.000996
  C      1.072852   -0.891104   -0.000229
  C     -0.235330   -1.374527   -0.000157
  C     -1.308197   -0.483403   -0.000404
  C     -1.072981    0.891281   -0.000782
  Cl    -2.389808    1.984715   -0.000034
  Cl    -2.913575   -1.076886    0.000219
  Cl    -0.524367   -3.061500    0.000267
  Cl     2.389479   -1.984725    0.000120
  Cl     2.913797    1.076565    0.000071
  Cl     0.524508    3.061672    0.000689

 Total Charge           Charge          ....    0
 Multiplicity           Mult            ....    1
 Number of Electrons    NEL             ....  138
 Basis Dimension        Dim             ....  276

ORBITAL ENERGIES
----------------

  NO   OCC          E(Eh)            E(eV)
   0   2.0000    -101.250395     -2755.1633
   1   2.0000    -101.250386     -2755.1631
   2   2.0000    -101.250382     -2755.1630
   3   2.0000    -101.250379     -2755.1629
   4   2.0000    -101.250377     -2755.1628
   5   2.0000    -101.250372     -2755.1627
   6   2.0000     -10.146905      -276.1113
   7   2.0000     -10.146711      -276.1060
   8   2.0000     -10.146705      -276.1059
   9   2.0000     -10.146283      -276.0944
  10   2.0000     -10.146276      -276.0942
  11   2.0000     -10.146072      -276.0887
  12   2.0000      -9.406170      -255.9549
  13   2.0000      -9.406162      -255.9547
  14   2.0000      -9.406159      -255.9546
  15   2.0000      -9.406156      -255.9545
  16   2.0000      -9.406155      -255.9545
  17   2.0000      -9.406149      -255.9543
  18   2.0000      -7.152919      -194.6408
  19   2.0000      -7.152908      -194.6405
  20   2.0000      -7.152907      -194.6405
  21   2.0000      -7.152906      -194.6405
  22   2.0000      -7.152902      -194.6404
  23   2.0000      -7.152902      -194.6404
  24   2.0000      -7.142455      -194.3561
  25   2.0000      -7.142446      -194.3558
  26   2.0000      -7.142445      -194.3558
  27   2.0000      -7.142442      -194.3557
  28   2.0000      -7.142441      -194.3557
  29   2.0000      -7.142440      -194.3557
  30   2.0000      -7.141376      -194.3267
  31   2.0000      -7.141367      -194.3265
  32   2.0000      -7.141366      -194.3264
  33   2.0000      -7.141363      -194.3264
  34   2.0000      -7.141361      -194.3263
  35   2.0000      -7.141360      -194.3263
  36   2.0000      -0.947678       -25.7876
  37   2.0000      -0.898880       -24.4598
  38   2.0000      -0.898862       -24.4593
  39   2.0000      -0.850025       -23.1304
  40   2.0000      -0.850002       -23.1297
  41   2.0000      -0.828060       -22.5327
  42   2.0000      -0.802632       -21.8407
  43   2.0000      -0.713909       -19.4264
  44   2.0000      -0.713873       -19.4255
  45   2.0000      -0.606600       -16.5064
  46   2.0000      -0.606594       -16.5063
  47   2.0000      -0.537728       -14.6323
  48   2.0000      -0.513731       -13.9793
  49   2.0000      -0.475238       -12.9319
  50   2.0000      -0.454306       -12.3623
  51   2.0000      -0.453988       -12.3536
  52   2.0000      -0.453964       -12.3530
  53   2.0000      -0.418707       -11.3936
  54   2.0000      -0.418700       -11.3934
  55   2.0000      -0.392115       -10.6700
  56   2.0000      -0.392103       -10.6697
  57   2.0000      -0.340832        -9.2745
  58   2.0000      -0.340820        -9.2742
  59   2.0000      -0.331694        -9.0259
  60   2.0000      -0.331674        -9.0253
  61   2.0000      -0.328801        -8.9471
  62   2.0000      -0.326955        -8.8969
  63   2.0000      -0.306483        -8.3398
  64   2.0000      -0.306443        -8.3387
  65   2.0000      -0.297189        -8.0869
  66   2.0000      -0.279471        -7.6048
  67   2.0000      -0.246010        -6.6943
  68   2.0000      -0.245992        -6.6938
  69   0.0000      -0.083348        -2.2680
  70   0.0000      -0.083340        -2.2678
  71   0.0000      -0.082565        -2.2467
  72   0.0000      -0.014763        -0.4017
  73   0.0000      -0.014736        -0.4010

MULLIKEN ATOMIC CHARGES
-----------------------
   0 C :    0.050759
   1 C :    0.050808
   2 C :    0.050906
   3 C :    0.050908
   4 C :    0.050935
   5 C :    0.050615
   6 Cl:   -0.050806
   7 Cl:   -0.050841
   8 Cl:   -0.050811
   9 Cl:   -0.050821
  10 Cl:   -0.050831
  11 Cl:   -0.050821
Sum of atomic charges:    0.0000000

LOEWDIN ATOMIC CHARGES
----------------------
   0 C :   -0.196607
   1 C :   -0.196632
   2 C :   -0.196634
   3 C :   -0.196642
   4 C :   -0.196632
   5 C :   -0.196622
   6 Cl:    0.196627
   7 Cl:    0.196631
   8 Cl:    0.196632
   9 Cl:    0.196629
  10 Cl:    0.196628
  11 Cl:    0.196622

  Mayer bond orders larger than 0.100000
B(  0-C ,  1-C ) :   1.0726 B(  0-C ,  5-C ) :   1.0728 B(  0-C , 11-Cl) :   1.2887
B(  1-C ,  2-C ) :   1.0725 B(  1-C , 10-Cl) :   1.2889 B(  2-C ,  3-C ) :   1.0727
B(  2-C ,  9-Cl) :   1.2889 B(  3-C ,  4-C ) :   1.0725 B(  3-C ,  8-Cl) :   1.2889
B(  4-C ,  5-C ) :   1.0725 B(  4-C ,  7-Cl) :   1.2889 B(  5-C ,  6-Cl) :   1.2889

Dispersion correction           -0.008367890
FINAL SINGLE POINT ENERGY     -2989.636643713422

DIPOLE MOMENT
-------------

Method             : SCF
Type of density    : Electron Density
Multiplicity       :   1
Irrep              :   0
Energy             : -2989.6384362684016196 Eh
Relativity type    :
Basis              : AO
                                X                 Y                 Z
Electronic contribution:      0.000036760      -0.000211367       0.001904577
Nuclear contribution   :     -0.000046478       0.000212311      -0.001789025
                        -----------------------------------------
Total Dipole Moment    :     -0.000009718       0.000000944       0.000115552
                        -----------------------------------------
Magnitude (a.u.)       :      0.000115963
Magnitude (Debye)      :      0.000294756

Rotational constants in cm-1:             0.015378             0.015375             0.007688
Rotational constants in MHz :           461.020318           460.919523           230.484971

                             ****ORCA TERMINATED NORMALLY****
TOTAL RUN TIME: 0 days 0 hours 0 minutes 38 seconds 551 msec
