                         Program Version 6.0.0  -   RELEASE  -
|  1> ! r2scan-3c def2/J RI DEFGRID2 scfconv6 printgap
|  2> %output
|  3>     printlevel normal
|  4> end
|  5> %cpcm
|  6>     smd true
|  7>     smdsolvent "water"
|  8> end
|  9> * xyz 0 1
| 10> C 0.2353199146 1.3747108029 -0.0013662374
| 11> C 1.3082338529 0.483509006 -0.0009961972
| 12> C 1.0728522034 -0.8911041269 -0.0002289948
| 13> C -0.2353299819 -1.3745272863 -0.0001565595
| 14> C -1.3081968034 -0.483402519 -0.000404025
| 15> C -1.0729813972 0.8912810288 -0.000782335
| 16> Cl -2.3898078947 1.9847149084 -3.38912e-05
| 17> Cl -2.9135748001 -1.0768857439 0.0002194427
| 18> Cl -0.5243666983 -3.0614997437 0.0002669182
| 19> Cl 2.3894787551 -1.984724937 0.0001200155
| 20> Cl 2.9137972184 1.0765654596 7.13471e-05
| 21> Cl 0.5245080469 3.0616718784 0.0006890454
| 22> *
| 23>
| 24>                          ****END OF INPUT****

CARTESIAN COORDINATES (ANGSTROEM)
---------------------------------
  C      0.235320    1.374711   -0.001366
  C      1.308234    0.483509   -0.000996
  C      1.072852   -0.891104   -0.000229
  C     -0.235330   -1.374527   -0.000157
  C     -1.308197   -0.483403   -0.000404
  C     -1.072981    0.891281   -0.000782
  Cl    -2.389808    1.984715   -0.000034
  Cl    -2.913575   -1.076886    0.000219
  Cl    -0.524367   -3.061500    0.000267
  Cl     2.389479   -1.984725    0.000120
  Cl     2.913797    1.076565    0.000071
  Cl     0.524508    3.061672    0.000689

 Total Charge           Charge          ....    0
 Multiplicity           Mult            ....    1
 Number of Electrons    NEL             ....  138
 Basis Dimension        Dim             ....  276

ORBITAL ENERGIES
----------------

  NO   OCC          E(Eh)            E(eV)
   0   2.0000    -101.248009     -2755.0984
   1   2.0000    -101.248003     -2755.0982
   2   2.0000    -101.247998     -2755.0981
   3   2.0000    -101.247996     -2755.0980
   4   2.0000    -101.247992     -2755.0979
   5   2.0000    -101.247987     -2755.0978
   6   2.0000     -10.142120      -275.9811
   7   2.0000     -10.141925      -275.9758
   8   2.0000     -10.141920      -275.9757
   9   2.0000     -10.141498      -275.9642
  10   2.0000     -10.141492      -275.9640
  11   2.0000     -10.141287      -275.9584
  12   2.0000      -9.403825      -255.8911
  13   2.0000      -9.403821      -255.8910
  14   2.0000      -9.403816      -255.8909
  15   2.0000      -9.403815      -255.8908
  16   2.0000      -9.403810      -255.8907
  17   2.0000      -9.403806      -255.8906
  18   2.0000      -7.150507      -194.5752
  19   2.0000      -7.150502      -194.5750
  20   2.0000      -7.150498      -194.5749
  21   2.0000      -7.150496      -194.5749
  22   2.0000      -7.150494      -194.5748
  23   2.0000      -7.150491      -194.5748
  24   2.0000      -7.140114      -194.2924
  25   2.0000      -7.140111      -194.2923
  26   2.0000      -7.140107      -194.2922
  27   2.0000      -7.140105      -194.2921
  28   2.0000      -7.140102      -194.2920
  29   2.0000      -7.140101      -194.2920
  30   2.0000      -7.139085      -194.2644
  31   2.0000      -7.139084      -194.2643
  32   2.0000      -7.139077      -194.2642
  33   2.0000      -7.139077      -194.2642
  34   2.0000      -7.139072      -194.2640
  35   2.0000      -7.139071      -194.2640
  36   2.0000      -0.943033       -25.6612
  37   2.0000      -0.895440       -24.3662
  38   2.0000      -0.895422       -24.3657
  39   2.0000      -0.847303       -23.0563
  40   2.0000      -0.847277       -23.0556
  41   2.0000      -0.825579       -22.4651
  42   2.0000      -0.798564       -21.7300
  43   2.0000      -0.709539       -19.3075
  44   2.0000      -0.709510       -19.3068
  45   2.0000      -0.602455       -16.3936
  46   2.0000      -0.602446       -16.3934
  47   2.0000      -0.533331       -14.5127
  48   2.0000      -0.510382       -13.8882
  49   2.0000      -0.472373       -12.8539
  50   2.0000      -0.450497       -12.2587
  51   2.0000      -0.450479       -12.2582
  52   2.0000      -0.448394       -12.2014
  53   2.0000      -0.415544       -11.3075
  54   2.0000      -0.415537       -11.3073
  55   2.0000      -0.388110       -10.5610
  56   2.0000      -0.388102       -10.5608
  57   2.0000      -0.338515        -9.2115
  58   2.0000      -0.338498        -9.2110
  59   2.0000      -0.329673        -8.9708
  60   2.0000      -0.329651        -8.9703
  61   2.0000      -0.326779        -8.8921
  62   2.0000      -0.324885        -8.8406
  63   2.0000      -0.304795        -8.2939
  64   2.0000      -0.304752        -8.2927
  65   2.0000      -0.294083        -8.0024
  66   2.0000      -0.277752        -7.5580
  67   2.0000      -0.241661        -6.5759
  68   2.0000      -0.241653        -6.5757
  69   0.0000      -0.079003        -2.1498
  70   0.0000      -0.078010        -2.1228
  71   0.0000      -0.077998        -2.1224
  72   0.0000      -0.011188        -0.3044
  73   0.0000      -0.011164        -0.3038

MULLIKEN ATOMIC CHARGES
-----------------------
   0 C :    0.063468
   1 C :    0.064044
   2 C :    0.063780
   3 C :    0.063688
   4 C :    0.064164
   5 C :    0.063506
   6 Cl:   -0.063714
   7 Cl:   -0.063809
   8 Cl:   -0.063795
   9 Cl:   -0.063732
  10 Cl:   -0.063795
  11 Cl:   -0.063804
Sum of atomic charges:    0.0000000

LOEWDIN ATOMIC CHARGES
----------------------
   0 C :   -0.189917
   1 C :   -0.189896
   2 C :   -0.189887
   3 C :   -0.189950
   4 C :   -0.189896
   5 C :   -0.189876
   6 Cl:    0.189919
   7 Cl:    0.189905
   8 Cl:    0.189893
   9 Cl:    0.189920
  10 Cl:    0.189903
  11 Cl:    0.189882

  Mayer bond orders larger than 0.100000
B(  0-C ,  1-C ) :   1.0824 B(  0-C ,  5-C ) :   1.0825 B(  0-C , 11-Cl) :   1.2716
B(  1-C ,  2-C ) :   1.0821 B(  1-C , 10-Cl) :   1.2716 B(  2-C ,  3-C ) :   1.0824
B(  2-C ,  9-Cl) :   1.2720 B(  3-C ,  4-C ) :   1.0824 B(  3-C ,  8-Cl) :   1.2717
B(  4-C ,  5-C ) :   1.0821 B(  4-C ,  7-Cl) :   1.2716 B(  5-C ,  6-Cl) :   1.2720

Dispersion correction           -0.008367890
FINAL SINGLE POINT ENERGY     -2989.634193481013

DIPOLE MOMENT
-------------

Method             : SCF
Type of density    : Electron Density
Multiplicity       :   1
Irrep              :   0
Energy             : -2989.6359860359925733 Eh
Relativity type    :
Basis              : AO
                                X                 Y                 Z
Electronic contribution:      0.000034975      -0.000213099       0.001789574
Nuclear contribution   :     -0.000046478       0.000212311      -0.001789025
                        -----------------------------------------
Total Dipole Moment    :     -0.000011503      -0.000000788       0.000000549
                        -----------------------------------------
Magnitude (a.u.)       :      0.000011543
Magnitude (Debye)      :      0.000029340

Rotational constants in cm-1:             0.015378             0.015375             0.007688
Rotational constants in MHz :           461.020318           460.919523           230.484971

                             ****ORCA TERMINATED NORMALLY****
TOTAL RUN TIME: 0 days 0 hours 0 minutes 46 seconds 930 msec
