                         Program Version 6.0.0  -   RELEASE  -
|  1> ! r2scan-3c def2/J RI DEFGRID2 scfconv6 printgap
|  2> %output
|  3>     printlevel normal
|  4> end
|  5> * xyz 0 1
|  6> C -1.371122951 0.6844822838 1.52875357
|  7> N -1.9904201325 0.4812321683 0.2387045226
|  8> C -3.1761441939 1.2726317872 -0.0083533297
|  9> C -1.6372848091 -0.473003009 -0.6436721284
| 10> O -2.3626417762 -0.8135552824 -1.5843308944
| 11> N -0.4403732862 -1.1324755497 -0.4273809155
| 12> C 0.8016308676 -0.551478682 -0.1312255852
| 13> C 1.0453777966 0.8075648799 -0.3098801994
| 14> C 2.2863942162 1.3355859613 -0.0028643974
| 15> C 3.2996691978 0.5197134566 0.4704783313
| 16> C 3.0684770238 -0.8378413182 0.623563836
| 17> C 1.8302935432 -1.3733899557 0.3249118617
| 18> H -0.7463366057 1.5803994004 1.5305839662
| 19> H -0.7598321907 -0.1723231263 1.796615917
| 20> H -2.1592009125 0.8034452541 2.2726576577
| 21> H -3.9595222848 1.0250960019 0.7103167227
| 22> H -3.5350721316 1.0553697802 -1.0119703017
| 23> H -2.9307286572 2.3316638419 0.0760147591
| 24> H -0.3876176953 -2.0060769814 -0.9353125676
| 25> H 0.2696479478 1.4396532989 -0.7142608642
| 26> H 2.464043683 2.3905165283 -0.1469110336
| 27> H 4.2662222391 0.9360766363 0.7072171347
| 28> H 3.856772588 -1.4840485088 0.9783884711
| 29> H 1.6503337337 -2.4312184119 0.4417548954
| 30> *
| 31>
| 32>                          ****END OF INPUT****

CARTESIAN COORDINATES (ANGSTROEM)
---------------------------------
  C     -1.371123    0.684482    1.528754
  N     -1.990420    0.481232    0.238705
  C     -3.176144    1.272632   -0.008353
  C     -1.637285   -0.473003   -0.643672
  O     -2.362642   -0.813555   -1.584331
  N     -0.440373   -1.132476   -0.427381
  C      0.801631   -0.551479   -0.131226
  C      1.045378    0.807565   -0.309880
  C      2.286394    1.335586   -0.002864
  C      3.299669    0.519713    0.470478
  C      3.068477   -0.837841    0.623564
  C      1.830294   -1.373390    0.324912
  H     -0.746337    1.580399    1.530584
  H     -0.759832   -0.172323    1.796616
  H     -2.159201    0.803445    2.272658
  H     -3.959522    1.025096    0.710317
  H     -3.535072    1.055370   -1.011970
  H     -2.930729    2.331664    0.076015
  H     -0.387618   -2.006077   -0.935313
  H      0.269648    1.439653   -0.714261
  H      2.464044    2.390517   -0.146911
  H      4.266222    0.936077    0.707217
  H      3.856773   -1.484049    0.978388
  H      1.650334   -2.431218    0.441755

 Total Charge           Charge          ....    0
 Multiplicity           Mult            ....    1
 Number of Electrons    NEL             ....   88
 Basis Dimension        Dim             ....  303

ORBITAL ENERGIES
----------------

  NO   OCC          E(Eh)            E(eV)
   0   2.0000     -18.898895      -514.2651
   1   2.0000     -14.195362      -386.2754
   2   2.0000     -14.189724      -386.1220
   3   2.0000     -10.147191      -276.1191
   4   2.0000     -10.086203      -274.4595
   5   2.0000     -10.067496      -273.9505
   6   2.0000     -10.060292      -273.7544
   7   2.0000     -10.042209      -273.2624
   8   2.0000     -10.042129      -273.2602
   9   2.0000     -10.040033      -273.2032
  10   2.0000     -10.039235      -273.1815
  11   2.0000     -10.034919      -273.0640
  12   2.0000      -1.008340       -27.4383
  13   2.0000      -0.910010       -24.7626
  14   2.0000      -0.899554       -24.4781
  15   2.0000      -0.822474       -22.3807
  16   2.0000      -0.726378       -19.7658
  17   2.0000      -0.717956       -19.5366
  18   2.0000      -0.694926       -18.9099
  19   2.0000      -0.671859       -18.2822
  20   2.0000      -0.595554       -16.2058
  21   2.0000      -0.588352       -16.0099
  22   2.0000      -0.537094       -14.6151
  23   2.0000      -0.517556       -14.0834
  24   2.0000      -0.488520       -13.2933
  25   2.0000      -0.463962       -12.6250
  26   2.0000      -0.453326       -12.3356
  27   2.0000      -0.440426       -11.9846
  28   2.0000      -0.420835       -11.4515
  29   2.0000      -0.412464       -11.2237
  30   2.0000      -0.398743       -10.8503
  31   2.0000      -0.392661       -10.6848
  32   2.0000      -0.379421       -10.3246
  33   2.0000      -0.374360       -10.1869
  34   2.0000      -0.369012       -10.0413
  35   2.0000      -0.347825        -9.4648
  36   2.0000      -0.344571        -9.3763
  37   2.0000      -0.335296        -9.1239
  38   2.0000      -0.321848        -8.7579
  39   2.0000      -0.281509        -7.6603
  40   2.0000      -0.244976        -6.6661
  41   2.0000      -0.229053        -6.2329
  42   2.0000      -0.213062        -5.7977
  43   2.0000      -0.201145        -5.4734
  44   0.0000      -0.040445        -1.1006
  45   0.0000      -0.035051        -0.9538
  46   0.0000       0.021638         0.5888
  47   0.0000       0.063422         1.7258
  48   0.0000       0.076461         2.0806

MULLIKEN ATOMIC CHARGES
-----------------------
   0 C :   -0.429208
   1 N :    0.045564
   2 C :   -0.395605
   3 C :    0.153381
   4 O :   -0.469287
   5 N :   -0.112807
   6 C :    0.240089
   7 C :   -0.251574
   8 C :   -0.153314
   9 C :   -0.172259
  10 C :   -0.118453
  11 C :   -0.339560
  12 H :    0.175901
  13 H :    0.180316
  14 H :    0.142041
  15 H :    0.148066
  16 H :    0.199901
  17 H :    0.139388
  18 H :    0.266273
  19 H :    0.162822
  20 H :    0.146930
  21 H :    0.147505
  22 H :    0.148191
  23 H :    0.145700
Sum of atomic charges:    0.0000000

LOEWDIN ATOMIC CHARGES
----------------------
   0 C :   -0.100294
   1 N :   -0.813548
   2 C :   -0.104210
   3 C :    0.428873
   4 O :   -0.451106
   5 N :   -0.569841
   6 C :    0.137347
   7 C :   -0.143710
   8 C :   -0.155295
   9 C :   -0.183585
  10 C :   -0.153164
  11 C :   -0.144310
  12 H :    0.175265
  13 H :    0.199263
  14 H :    0.176537
  15 H :    0.172049
  16 H :    0.209590
  17 H :    0.170814
  18 H :    0.287792
  19 H :    0.183566
  20 H :    0.168565
  21 H :    0.167109
  22 H :    0.168603
  23 H :    0.173689

  Mayer bond orders larger than 0.100000
B(  0-C ,  1-N ) :   0.9221 B(  0-C , 12-H ) :   0.9512 B(  0-C , 13-H ) :   0.9559
B(  0-C , 14-H ) :   0.9491 B(  1-N ,  2-C ) :   0.9183 B(  1-N ,  3-C ) :   1.2014
B(  2-C , 15-H ) :   0.9575 B(  2-C , 16-H ) :   0.9516 B(  2-C , 17-H ) :   0.9547
B(  3-C ,  4-O ) :   1.8997 B(  3-C ,  5-N ) :   1.0838 B(  5-N ,  6-C ) :   0.8717
B(  5-N , 18-H ) :   0.9092 B(  6-C ,  7-C ) :   1.3707 B(  6-C , 11-C ) :   1.3670
B(  7-C ,  8-C ) :   1.3909 B(  7-C , 19-H ) :   0.9487 B(  8-C ,  9-C ) :   1.4169
B(  8-C , 20-H ) :   0.9533 B(  9-C , 10-C ) :   1.4132 B(  9-C , 21-H ) :   0.9493
B( 10-C , 11-C ) :   1.4040 B( 10-C , 22-H ) :   0.9443 B( 11-C , 23-H ) :   0.9499

Dispersion correction           -0.009225803
FINAL SINGLE POINT ENERGY      -534.787924060405

DIPOLE MOMENT
-------------

Method             : SCF
Type of density    : Electron Density
Multiplicity       :   1
Irrep              :   0
Energy             :  -534.7980001100121399 Eh
Relativity type    :
Basis              : AO
                                X                 Y                 Z
Electronic contribution:      2.458667504      -4.609672949      -4.228427896
Nuclear contribution   :     -1.897746691       5.114803528       5.327836374
                        -----------------------------------------
Total Dipole Moment    :      0.560920813       0.505130579       1.099408479
                        -----------------------------------------
Magnitude (a.u.)       :      1.333599664
Magnitude (Debye)      :      3.389740958

Rotational constants in cm-1:             0.068169             0.019590             0.017443
Rotational constants in MHz :          2043.655841           587.304999           522.915622

                             ****ORCA TERMINATED NORMALLY****
TOTAL RUN TIME: 0 days 0 hours 0 minutes 40 seconds 301 msec
