                         Program Version 6.0.0  -   RELEASE  -
|  1> ! r2scan-3c def2/J RI DEFGRID2 scfconv6 printgap
|  2> %output
|  3>     printlevel normal
|  4> end
|  5> %cpcm
|  6>     smd true
|  7>     smdsolvent "water"
|  8> end
|  9> * xyz 0 1
| 10> C -1.371122951 0.6844822838 1.52875357
| 11> N -1.9904201325 0.4812321683 0.2387045226
| 12> C -3.1761441939 1.2726317872 -0.0083533297
| 13> C -1.6372848091 -0.473003009 -0.6436721284
| 14> O -2.3626417762 -0.8135552824 -1.5843308944
| 15> N -0.4403732862 -1.1324755497 -0.4273809155
| 16> C 0.8016308676 -0.551478682 -0.1312255852
| 17> C 1.0453777966 0.8075648799 -0.3098801994
| 18> C 2.2863942162 1.3355859613 -0.0028643974
| 19> C 3.2996691978 0.5197134566 0.4704783313
| 20> C 3.0684770238 -0.8378413182 0.623563836
| 21> C 1.8302935432 -1.3733899557 0.3249118617
| 22> H -0.7463366057 1.5803994004 1.5305839662
| 23> H -0.7598321907 -0.1723231263 1.796615917
| 24> H -2.1592009125 0.8034452541 2.2726576577
| 25> H -3.9595222848 1.0250960019 0.7103167227
| 26> H -3.5350721316 1.0553697802 -1.0119703017
| 27> H -2.9307286572 2.3316638419 0.0760147591
| 28> H -0.3876176953 -2.0060769814 -0.9353125676
| 29> H 0.2696479478 1.4396532989 -0.7142608642
| 30> H 2.464043683 2.3905165283 -0.1469110336
| 31> H 4.2662222391 0.9360766363 0.7072171347
| 32> H 3.856772588 -1.4840485088 0.9783884711
| 33> H 1.6503337337 -2.4312184119 0.4417548954
| 34> *
| 35>
| 36>                          ****END OF INPUT****

CARTESIAN COORDINATES (ANGSTROEM)
---------------------------------
  C     -1.371123    0.684482    1.528754
  N     -1.990420    0.481232    0.238705
  C     -3.176144    1.272632   -0.008353
  C     -1.637285   -0.473003   -0.643672
  O     -2.362642   -0.813555   -1.584331
  N     -0.440373   -1.132476   -0.427381
  C      0.801631   -0.551479   -0.131226
  C      1.045378    0.807565   -0.309880
  C      2.286394    1.335586   -0.002864
  C      3.299669    0.519713    0.470478
  C      3.068477   -0.837841    0.623564
  C      1.830294   -1.373390    0.324912
  H     -0.746337    1.580399    1.530584
  H     -0.759832   -0.172323    1.796616
  H     -2.159201    0.803445    2.272658
  H     -3.959522    1.025096    0.710317
  H     -3.535072    1.055370   -1.011970
  H     -2.930729    2.331664    0.076015
  H     -0.387618   -2.006077   -0.935313
  H      0.269648    1.439653   -0.714261
  H      2.464044    2.390517   -0.146911
  H      4.266222    0.936077    0.707217
  H      3.856773   -1.484049    0.978388
  H      1.650334   -2.431218    0.441755

 Total Charge           Charge          ....    0
 Multiplicity           Mult            ....    1
 Number of Electrons    NEL             ....   88
 Basis Dimension        Dim             ....  303

ORBITAL ENERGIES
----------------

  NO   OCC          E(Eh)            E(eV)
   0   2.0000     -18.918132      -514.7885
   1   2.0000     -14.195407      -386.2767
   2   2.0000     -14.187697      -386.0669
   3   2.0000     -10.156876      -276.3827
   4   2.0000     -10.082034      -274.3461
   5   2.0000     -10.053439      -273.5680
   6   2.0000     -10.050537      -273.4890
   7   2.0000     -10.035212      -273.0720
   8   2.0000     -10.035104      -273.0691
   9   2.0000     -10.033235      -273.0182
  10   2.0000     -10.032815      -273.0068
  11   2.0000     -10.028612      -272.8924
  12   2.0000      -1.021074       -27.7848
  13   2.0000      -0.915330       -24.9074
  14   2.0000      -0.896306       -24.3897
  15   2.0000      -0.818533       -22.2734
  16   2.0000      -0.720192       -19.5974
  17   2.0000      -0.714064       -19.4307
  18   2.0000      -0.685487       -18.6530
  19   2.0000      -0.666467       -18.1355
  20   2.0000      -0.590493       -16.0681
  21   2.0000      -0.582068       -15.8389
  22   2.0000      -0.530462       -14.4346
  23   2.0000      -0.511208       -13.9107
  24   2.0000      -0.483637       -13.1604
  25   2.0000      -0.458268       -12.4701
  26   2.0000      -0.448127       -12.1942
  27   2.0000      -0.435772       -11.8580
  28   2.0000      -0.416990       -11.3469
  29   2.0000      -0.403598       -10.9825
  30   2.0000      -0.395317       -10.7571
  31   2.0000      -0.389222       -10.5913
  32   2.0000      -0.381685       -10.3862
  33   2.0000      -0.367102        -9.9893
  34   2.0000      -0.363700        -9.8968
  35   2.0000      -0.347730        -9.4622
  36   2.0000      -0.340329        -9.2608
  37   2.0000      -0.327943        -8.9238
  38   2.0000      -0.313186        -8.5222
  39   2.0000      -0.284293        -7.7360
  40   2.0000      -0.246080        -6.6962
  41   2.0000      -0.241532        -6.5724
  42   2.0000      -0.220330        -5.9955
  43   2.0000      -0.201228        -5.4757
  44   0.0000      -0.035936        -0.9779
  45   0.0000      -0.033099        -0.9007
  46   0.0000       0.016456         0.4478
  47   0.0000       0.070704         1.9239
  48   0.0000       0.089507         2.4356

MULLIKEN ATOMIC CHARGES
-----------------------
   0 C :   -0.455349
   1 N :    0.062732
   2 C :   -0.419915
   3 C :    0.178627
   4 O :   -0.580175
   5 N :   -0.130395
   6 C :    0.211695
   7 C :   -0.263367
   8 C :   -0.198875
   9 C :   -0.210146
  10 C :   -0.156285
  11 C :   -0.348946
  12 H :    0.193051
  13 H :    0.191987
  14 H :    0.169417
  15 H :    0.175827
  16 H :    0.186296
  17 H :    0.168599
  18 H :    0.314762
  19 H :    0.191026
  20 H :    0.179036
  21 H :    0.178759
  22 H :    0.180977
  23 H :    0.180663
Sum of atomic charges:    0.0000000

LOEWDIN ATOMIC CHARGES
----------------------
   0 C :   -0.095441
   1 N :   -0.799100
   2 C :   -0.103125
   3 C :    0.427791
   4 O :   -0.539407
   5 N :   -0.560810
   6 C :    0.132080
   7 C :   -0.147204
   8 C :   -0.165157
   9 C :   -0.196169
  10 C :   -0.165125
  11 C :   -0.144440
  12 H :    0.183591
  13 H :    0.201685
  14 H :    0.188550
  15 H :    0.182619
  16 H :    0.202435
  17 H :    0.183876
  18 H :    0.299329
  19 H :    0.192289
  20 H :    0.179401
  21 H :    0.176632
  22 H :    0.179164
  23 H :    0.186536

  Mayer bond orders larger than 0.100000
B(  0-C ,  1-N ) :   0.9131 B(  0-C , 12-H ) :   0.9429 B(  0-C , 13-H ) :   0.9503
B(  0-C , 14-H ) :   0.9414 B(  1-N ,  2-C ) :   0.9053 B(  1-N ,  3-C ) :   1.2494
B(  2-C , 15-H ) :   0.9491 B(  2-C , 16-H ) :   0.9549 B(  2-C , 17-H ) :   0.9476
B(  3-C ,  4-O ) :   1.8155 B(  3-C ,  5-N ) :   1.1105 B(  5-N ,  6-C ) :   0.8760
B(  5-N , 18-H ) :   0.8868 B(  6-C ,  7-C ) :   1.3300 B(  6-C , 11-C ) :   1.3450
B(  7-C ,  8-C ) :   1.3696 B(  7-C , 19-H ) :   0.9519 B(  8-C ,  9-C ) :   1.3810
B(  8-C , 20-H ) :   0.9623 B(  9-C , 10-C ) :   1.3708 B(  9-C , 21-H ) :   0.9573
B( 10-C , 11-C ) :   1.3762 B( 10-C , 22-H ) :   0.9524 B( 11-C , 23-H ) :   0.9577

Dispersion correction           -0.009225803
FINAL SINGLE POINT ENERGY      -534.801376848857

DIPOLE MOMENT
-------------

Method             : SCF
Type of density    : Electron Density
Multiplicity       :   1
Irrep              :   0
Energy             :  -534.8114528984642675 Eh
Relativity type    :
Basis              : AO
                                X                 Y                 Z
Electronic contribution:      2.685155688      -4.350983109      -3.676832709
Nuclear contribution   :     -1.897746691       5.114803528       5.327836374
                        -----------------------------------------
Total Dipole Moment    :      0.787408998       0.763820418       1.651003665
                        -----------------------------------------
Magnitude (a.u.)       :      1.982232999
Magnitude (Debye)      :      5.038435873

Rotational constants in cm-1:             0.068169             0.019590             0.017443
Rotational constants in MHz :          2043.655841           587.304999           522.915622

                             ****ORCA TERMINATED NORMALLY****
TOTAL RUN TIME: 0 days 0 hours 0 minutes 49 seconds 662 msec
