                         Program Version 6.0.0  -   RELEASE  -
|  1> ! pbe def2-sv(p) def2/J RI DEFGRID1 loosescf d4 GCP(DFT/SV(P)) printgap
|  2> %output
|  3>     printlevel normal
|  4> end
|  5> * xyz 0 1
|  6> C -2.4880731122 -1.1826670201 -0.0132425448
|  7> C -1.7169127179 0.1011101562 0.0016108807
|  8> O -2.2672038965 1.1887708201 0.0119970256
|  9> C -0.2288736604 0.0058471446 0.0003902812
| 10> C 0.5155245607 1.1861198049 -0.0064155251
| 11> C 1.8980683226 1.1057203271 -0.0073040734
| 12> N 2.5573077486 -0.0422367835 -0.0006866235
| 13> C 1.8527345613 -1.1630408759 0.006759792
| 14> C 0.4668465809 -1.2024231104 0.0069731746
| 15> H -3.5525404411 -0.9646048442 -0.0216733792
| 16> H -2.2433985346 -1.7686199443 0.869379098
| 17> H -2.2262302631 -1.7609455491 -0.8959135697
| 18> H 0.0036738038 2.1358943887 -0.0105015096
| 19> H 2.5099329754 1.996969037 -0.0118481576
| 20> H 2.4340544924 -2.0745439186 0.0095906526
| 21> H -0.0412756801 -2.1514084932 0.0138696334
| 22> *
| 23>
| 24>                          ****END OF INPUT****

CARTESIAN COORDINATES (ANGSTROEM)
---------------------------------
  C     -2.488073   -1.182667   -0.013243
  C     -1.716913    0.101110    0.001611
  O     -2.267204    1.188771    0.011997
  C     -0.228874    0.005847    0.000390
  C      0.515525    1.186120   -0.006416
  C      1.898068    1.105720   -0.007304
  N      2.557308   -0.042237   -0.000687
  C      1.852735   -1.163041    0.006760
  C      0.466847   -1.202423    0.006973
  H     -3.552540   -0.964605   -0.021673
  H     -2.243399   -1.768620    0.869379
  H     -2.226230   -1.760946   -0.895914
  H      0.003674    2.135894   -0.010502
  H      2.509933    1.996969   -0.011848
  H      2.434054   -2.074544    0.009591
  H     -0.041276   -2.151408    0.013870

 Total Charge           Charge          ....    0
 Multiplicity           Mult            ....    1
 Number of Electrons    NEL             ....   64
 Basis Dimension        Dim             ....  140

ORBITAL ENERGIES
----------------

  NO   OCC          E(Eh)            E(eV)
   0   2.0000     -18.754906      -510.3469
   1   2.0000     -13.995537      -380.8379
   2   2.0000      -9.989451      -271.8268
   3   2.0000      -9.935924      -270.3702
   4   2.0000      -9.933273      -270.2981
   5   2.0000      -9.927274      -270.1348
   6   2.0000      -9.920228      -269.9431
   7   2.0000      -9.912094      -269.7218
   8   2.0000      -9.899324      -269.3743
   9   2.0000      -0.950355       -25.8605
  10   2.0000      -0.871661       -23.7191
  11   2.0000      -0.750319       -20.4172
  12   2.0000      -0.700247       -19.0547
  13   2.0000      -0.682009       -18.5584
  14   2.0000      -0.593643       -16.1538
  15   2.0000      -0.579839       -15.7782
  16   2.0000      -0.515746       -14.0342
  17   2.0000      -0.461050       -12.5458
  18   2.0000      -0.450785       -12.2665
  19   2.0000      -0.423033       -11.5113
  20   2.0000      -0.418084       -11.3766
  21   2.0000      -0.402135       -10.9426
  22   2.0000      -0.394611       -10.7379
  23   2.0000      -0.381310       -10.3760
  24   2.0000      -0.375041       -10.2054
  25   2.0000      -0.350220        -9.5300
  26   2.0000      -0.335993        -9.1428
  27   2.0000      -0.328042        -8.9265
  28   2.0000      -0.273197        -7.4341
  29   2.0000      -0.254367        -6.9217
  30   2.0000      -0.219501        -5.9729
  31   2.0000      -0.212435        -5.7806
  32   0.0000      -0.108335        -2.9479
  33   0.0000      -0.058025        -1.5790
  34   0.0000      -0.015707        -0.4274
  35   0.0000       0.034555         0.9403
  36   0.0000       0.066423         1.8075

MULLIKEN ATOMIC CHARGES
-----------------------
   0 C :   -0.244464
   1 C :   -0.005152
   2 O :   -0.148714
   3 C :    0.098642
   4 C :   -0.109765
   5 C :   -0.040935
   6 N :   -0.051053
   7 C :   -0.041178
   8 C :   -0.129101
   9 H :    0.124034
  10 H :    0.131308
  11 H :    0.131153
  12 H :    0.076937
  13 H :    0.076246
  14 H :    0.072052
  15 H :    0.059989
Sum of atomic charges:    0.0000000

LOEWDIN ATOMIC CHARGES
----------------------
   0 C :   -0.359932
   1 C :    0.050196
   2 O :   -0.117745
   3 C :   -0.058880
   4 C :   -0.103573
   5 C :   -0.075762
   6 N :   -0.063265
   7 C :   -0.076598
   8 C :   -0.128405
   9 H :    0.139558
  10 H :    0.144920
  11 H :    0.144544
  12 H :    0.138645
  13 H :    0.118621
  14 H :    0.117446
  15 H :    0.130230

  Mayer bond orders larger than 0.100000
B(  0-C ,  1-C ) :   1.1324 B(  0-C ,  9-H ) :   0.9280 B(  0-C , 10-H ) :   0.9130
B(  0-C , 11-H ) :   0.9144 B(  1-C ,  2-O ) :   2.1773 B(  1-C ,  3-C ) :   0.9160
B(  3-C ,  4-C ) :   1.4028 B(  3-C ,  8-C ) :   1.3815 B(  4-C ,  5-C ) :   1.3585
B(  4-C , 12-H ) :   0.9372 B(  5-C ,  6-N ) :   1.5297 B(  5-C , 13-H ) :   0.9539
B(  6-N ,  7-C ) :   1.5559 B(  7-C ,  8-C ) :   1.3687 B(  7-C , 14-H ) :   0.9509
B(  8-C , 15-H ) :   0.9310

Dispersion correction           -0.016452083
FINAL SINGLE POINT ENERGY      -400.084642972552

DIPOLE MOMENT
-------------

Method             : SCF
Type of density    : Electron Density
Multiplicity       :   1
Irrep              :   0
Energy             :  -400.1301449055953299 Eh
Relativity type    :
Basis              : AO
                                X                 Y                 Z
Electronic contribution:      2.711777791       3.444563162       0.036407387
Nuclear contribution   :     -2.942688338      -4.286251866      -0.044011278
                        -----------------------------------------
Total Dipole Moment    :     -0.230910547      -0.841688704      -0.007603890
                        -----------------------------------------
Magnitude (a.u.)       :      0.872821502
Magnitude (Debye)      :      2.218535948

Rotational constants in cm-1:             0.128517             0.040993             0.031261
Rotational constants in MHz :          3852.848741          1228.932615           937.193965

                             ****ORCA TERMINATED NORMALLY****
TOTAL RUN TIME: 0 days 0 hours 0 minutes 10 seconds 147 msec
