                         Program Version 6.0.0  -   RELEASE  -
|  1> ! pbe def2-sv(p) def2/J RI DEFGRID1 loosescf d4 GCP(DFT/SV(P)) printgap
|  2> %output
|  3>     printlevel normal
|  4> end
|  5> * xyz 0 1
|  6> C -2.8188109565 -0.2564624627 -0.3630099095
|  7> O -1.4004234026 -0.5092039295 -0.4203630942
|  8> C -0.6131362152 0.3392892986 0.1621552123
|  9> O -0.9045269195 1.3404190537 0.7592770328
| 10> C 0.8770103557 -0.0937692628 0.0050628814
| 11> F 1.6048262337 0.8843615942 -0.5487524158
| 12> F 1.4236566108 -0.3645155413 1.1983038686
| 13> F 1.0298168656 -1.180467711 -0.7549649866
| 14> H -3.2719961152 -1.0422206303 -0.9585588678
| 15> H -3.0336218336 0.7294731358 -0.7729444434
| 16> H -3.1559592079 -0.2991576708 0.671789501
| 17> *
| 18>
| 19>                          ****END OF INPUT****

CARTESIAN COORDINATES (ANGSTROEM)
---------------------------------
  C     -2.818811   -0.256462   -0.363010
  O     -1.400423   -0.509204   -0.420363
  C     -0.613136    0.339289    0.162155
  O     -0.904527    1.340419    0.759277
  C      0.877010   -0.093769    0.005063
  F      1.604826    0.884362   -0.548752
  F      1.423657   -0.364516    1.198304
  F      1.029817   -1.180468   -0.754965
  H     -3.271996   -1.042221   -0.958559
  H     -3.033622    0.729473   -0.772944
  H     -3.155959   -0.299158    0.671790

 Total Charge           Charge          ....    0
 Multiplicity           Mult            ....    1
 Number of Electrons    NEL             ....   64
 Basis Dimension        Dim             ....  118

ORBITAL ENERGIES
----------------

  NO   OCC          E(Eh)            E(eV)
   0   2.0000     -24.294947      -661.0991
   1   2.0000     -24.294692      -661.0922
   2   2.0000     -24.294559      -661.0885
   3   2.0000     -18.838384      -512.6185
   4   2.0000     -18.770727      -510.7775
   5   2.0000     -10.132631      -275.7229
   6   2.0000     -10.039204      -273.1806
   7   2.0000      -9.968013      -271.2434
   8   2.0000      -1.199940       -32.6520
   9   2.0000      -1.107058       -30.1246
  10   2.0000      -1.105537       -30.0832
  11   2.0000      -1.047025       -28.4910
  12   2.0000      -0.951944       -25.9037
  13   2.0000      -0.715414       -19.4674
  14   2.0000      -0.641032       -17.4434
  15   2.0000      -0.567362       -15.4387
  16   2.0000      -0.535994       -14.5851
  17   2.0000      -0.533792       -14.5252
  18   2.0000      -0.521049       -14.1785
  19   2.0000      -0.463762       -12.6196
  20   2.0000      -0.445050       -12.1104
  21   2.0000      -0.417323       -11.3559
  22   2.0000      -0.405594       -11.0368
  23   2.0000      -0.402569       -10.9545
  24   2.0000      -0.386027       -10.5043
  25   2.0000      -0.369083       -10.0433
  26   2.0000      -0.365083        -9.9344
  27   2.0000      -0.357905        -9.7391
  28   2.0000      -0.343429        -9.3452
  29   2.0000      -0.328446        -8.9375
  30   2.0000      -0.293057        -7.9745
  31   2.0000      -0.252673        -6.8756
  32   0.0000      -0.060640        -1.6501
  33   0.0000       0.038148         1.0381
  34   0.0000       0.049123         1.3367
  35   0.0000       0.083724         2.2782
  36   0.0000       0.094293         2.5658

MULLIKEN ATOMIC CHARGES
-----------------------
   0 C :   -0.119932
   1 O :   -0.211028
   2 C :    0.050155
   3 O :   -0.175360
   4 C :    0.430858
   5 F :   -0.129704
   6 F :   -0.132099
   7 F :   -0.123299
   8 H :    0.139141
   9 H :    0.135794
  10 H :    0.135476
Sum of atomic charges:   -0.0000000

LOEWDIN ATOMIC CHARGES
----------------------
   0 C :   -0.193739
   1 O :   -0.034668
   2 C :   -0.026291
   3 O :   -0.122904
   4 C :    0.090842
   5 F :   -0.033095
   6 F :   -0.034897
   7 F :   -0.033464
   8 H :    0.130359
   9 H :    0.128927
  10 H :    0.128931

  Mayer bond orders larger than 0.100000
B(  0-C ,  1-O ) :   0.9104 B(  0-C ,  8-H ) :   0.9583 B(  0-C ,  9-H ) :   0.9494
B(  0-C , 10-H ) :   0.9521 B(  1-O ,  2-C ) :   1.2678 B(  1-O ,  3-O ) :   0.1153
B(  2-C ,  3-O ) :   2.0718 B(  2-C ,  4-C ) :   0.8417 B(  4-C ,  5-F ) :   1.1773
B(  4-C ,  6-F ) :   1.1729 B(  4-C ,  7-F ) :   1.1881

Dispersion correction           -0.007842013
FINAL SINGLE POINT ENERGY      -565.036445934632

DIPOLE MOMENT
-------------

Method             : SCF
Type of density    : Electron Density
Multiplicity       :   1
Irrep              :   0
Energy             :  -565.0966349869379428 Eh
Relativity type    :
Basis              : AO
                                X                 Y                 Z
Electronic contribution:     11.513778243      -0.500768410       0.526486583
Nuclear contribution   :    -12.670867931       0.050306428      -0.891516901
                        -----------------------------------------
Total Dipole Moment    :     -1.157089688      -0.450461981      -0.365030317
                        -----------------------------------------
Magnitude (a.u.)       :      1.294225512
Magnitude (Debye)      :      3.289659817

Rotational constants in cm-1:             0.120803             0.049871             0.043656
Rotational constants in MHz :          3621.579352          1495.103850          1308.778687

                             ****ORCA TERMINATED NORMALLY****
TOTAL RUN TIME: 0 days 0 hours 0 minutes 5 seconds 912 msec
