                         Program Version 6.0.0  -   RELEASE  -
|  1> ! pbe def2-sv(p) def2/J RI DEFGRID1 loosescf d4 GCP(DFT/SV(P)) printgap
|  2> %output
|  3>     printlevel normal
|  4> end
|  5> * xyz 0 1
|  6> C -3.0770462953 0.787811162 -0.3697628623
|  7> C -1.897214659 0.4092991128 0.5263316954
|  8> H -2.2741890238 0.3214252416 1.553267674
|  9> C -0.7682777898 1.4467666538 0.4875378359
| 10> C 0.1738347948 1.1534904142 -0.6741593992
| 11> C 0.911301028 -0.1897755695 -0.4824893665
| 12> H 0.9953213164 -0.6695634389 -1.4621731519
| 13> C 0.1001417826 -1.139045879 0.4225360883
| 14> C -1.3711921545 -0.9676600464 0.1820043289
| 15> O -2.0822843752 -1.8630260456 -0.2326728477
| 16> C 2.3168305816 0.0486034822 0.0302781162
| 17> C 2.6161978579 0.2973731019 1.2950600764
| 18> C 3.3677321202 0.0412620229 -1.038473588
| 19> H -3.5700962892 1.6795398513 0.0066738745
| 20> H -2.7389789513 0.9762006616 -1.3858893623
| 21> H -3.7946877085 -0.0288966041 -0.3981040871
| 22> H -1.2011683891 2.440911204 0.3727142323
| 23> H -0.2043082547 1.4384652167 1.4199090621
| 24> H -0.40804006 1.1175374636 -1.5971553698
| 25> H 0.9036381511 1.9580603555 -0.7718575818
| 26> H 0.389098518 -2.1742244961 0.2384043677
| 27> H 0.2916505562 -0.9043253586 1.4688192559
| 28> H 3.6292819224 0.4957428266 1.6004010079
| 29> H 1.8847284603 0.3179103857 2.0838832524
| 30> H 3.1051278051 0.7433333009 -1.8284756292
| 31> H 4.339895317 0.3107006429 -0.6360293238
| 32> H 3.4364532456 -0.9496591169 -1.4857957365
| 33> *
| 34>
| 35>                          ****END OF INPUT****

CARTESIAN COORDINATES (ANGSTROEM)
---------------------------------
  C     -3.077046    0.787811   -0.369763
  C     -1.897215    0.409299    0.526332
  H     -2.274189    0.321425    1.553268
  C     -0.768278    1.446767    0.487538
  C      0.173835    1.153490   -0.674159
  C      0.911301   -0.189776   -0.482489
  H      0.995321   -0.669563   -1.462173
  C      0.100142   -1.139046    0.422536
  C     -1.371192   -0.967660    0.182004
  O     -2.082284   -1.863026   -0.232673
  C      2.316831    0.048603    0.030278
  C      2.616198    0.297373    1.295060
  C      3.367732    0.041262   -1.038474
  H     -3.570096    1.679540    0.006674
  H     -2.738979    0.976201   -1.385889
  H     -3.794688   -0.028897   -0.398104
  H     -1.201168    2.440911    0.372714
  H     -0.204308    1.438465    1.419909
  H     -0.408040    1.117537   -1.597155
  H      0.903638    1.958060   -0.771858
  H      0.389099   -2.174224    0.238404
  H      0.291651   -0.904325    1.468819
  H      3.629282    0.495743    1.600401
  H      1.884728    0.317910    2.083883
  H      3.105128    0.743333   -1.828476
  H      4.339895    0.310701   -0.636029
  H      3.436453   -0.949659   -1.485796

 Total Charge           Charge          ....    0
 Multiplicity           Mult            ....    1
 Number of Electrons    NEL             ....   84
 Basis Dimension        Dim             ....  186

ORBITAL ENERGIES
----------------

  NO   OCC          E(Eh)            E(eV)
   0   2.0000     -18.738206      -509.8925
   1   2.0000      -9.968487      -271.2563
   2   2.0000      -9.910360      -269.6746
   3   2.0000      -9.906258      -269.5630
   4   2.0000      -9.902397      -269.4579
   5   2.0000      -9.894687      -269.2481
   6   2.0000      -9.893627      -269.2193
   7   2.0000      -9.892690      -269.1938
   8   2.0000      -9.887862      -269.0624
   9   2.0000      -9.878808      -268.8160
  10   2.0000      -9.877627      -268.7839
  11   2.0000      -0.933251       -25.3950
  12   2.0000      -0.774399       -21.0725
  13   2.0000      -0.730423       -19.8758
  14   2.0000      -0.684383       -18.6230
  15   2.0000      -0.659155       -17.9365
  16   2.0000      -0.619863       -16.8673
  17   2.0000      -0.611229       -16.6324
  18   2.0000      -0.551402       -15.0044
  19   2.0000      -0.538652       -14.6575
  20   2.0000      -0.471840       -12.8394
  21   2.0000      -0.456920       -12.4334
  22   2.0000      -0.448492       -12.2041
  23   2.0000      -0.428583       -11.6623
  24   2.0000      -0.417330       -11.3561
  25   2.0000      -0.402280       -10.9466
  26   2.0000      -0.388508       -10.5718
  27   2.0000      -0.380366       -10.3503
  28   2.0000      -0.362789        -9.8720
  29   2.0000      -0.360846        -9.8191
  30   2.0000      -0.353053        -9.6071
  31   2.0000      -0.349365        -9.5067
  32   2.0000      -0.333460        -9.0739
  33   2.0000      -0.329113        -8.9556
  34   2.0000      -0.327561        -8.9134
  35   2.0000      -0.313896        -8.5415
  36   2.0000      -0.305345        -8.3089
  37   2.0000      -0.290272        -7.8987
  38   2.0000      -0.278347        -7.5742
  39   2.0000      -0.277004        -7.5377
  40   2.0000      -0.224511        -6.1092
  41   2.0000      -0.190726        -5.1899
  42   0.0000      -0.052042        -1.4161
  43   0.0000      -0.017443        -0.4747
  44   0.0000       0.028299         0.7700
  45   0.0000       0.037826         1.0293
  46   0.0000       0.053961         1.4684

MULLIKEN ATOMIC CHARGES
-----------------------
   0 C :   -0.240260
   1 C :   -0.183984
   2 H :    0.101256
   3 C :   -0.100318
   4 C :   -0.113505
   5 C :   -0.169127
   6 H :    0.068875
   7 C :   -0.030042
   8 C :   -0.014735
   9 O :   -0.161719
  10 C :   -0.039229
  11 C :   -0.257590
  12 C :   -0.215068
  13 H :    0.097862
  14 H :    0.100438
  15 H :    0.120427
  16 H :    0.088350
  17 H :    0.077479
  18 H :    0.088610
  19 H :    0.094711
  20 H :    0.088723
  21 H :    0.092263
  22 H :    0.086389
  23 H :    0.097046
  24 H :    0.109410
  25 H :    0.098543
  26 H :    0.115192
Sum of atomic charges:    0.0000000

LOEWDIN ATOMIC CHARGES
----------------------
   0 C :   -0.326573
   1 C :   -0.175838
   2 H :    0.143253
   3 C :   -0.216900
   4 C :   -0.212040
   5 C :   -0.124050
   6 H :    0.123379
   7 C :   -0.228221
   8 C :    0.049800
   9 O :   -0.129524
  10 C :   -0.046485
  11 C :   -0.272012
  12 C :   -0.320223
  13 H :    0.118874
  14 H :    0.118247
  15 H :    0.128215
  16 H :    0.122604
  17 H :    0.117516
  18 H :    0.119120
  19 H :    0.124476
  20 H :    0.132208
  21 H :    0.136955
  22 H :    0.120608
  23 H :    0.114338
  24 H :    0.127594
  25 H :    0.123514
  26 H :    0.131164

  Mayer bond orders larger than 0.100000
B(  0-C ,  1-C ) :   1.1239 B(  0-C , 13-H ) :   0.9456 B(  0-C , 14-H ) :   0.9499
B(  0-C , 15-H ) :   0.9353 B(  1-C ,  2-H ) :   0.8569 B(  1-C ,  3-C ) :   1.0726
B(  1-C ,  8-C ) :   0.9215 B(  3-C ,  4-C ) :   1.1812 B(  3-C , 16-H ) :   0.9143
B(  3-C , 17-H ) :   0.8835 B(  4-C ,  5-C ) :   1.0700 B(  4-C , 18-H ) :   0.8996
B(  4-C , 19-H ) :   0.9098 B(  5-C ,  6-H ) :   0.8856 B(  5-C ,  7-C ) :   1.0811
B(  5-C , 10-C ) :   0.9932 B(  7-C ,  8-C ) :   1.0884 B(  7-C , 20-H ) :   0.8921
B(  7-C , 21-H ) :   0.8580 B(  8-C ,  9-O ) :   2.1919 B( 10-C , 11-C ) :   2.0374
B( 10-C , 12-C ) :   1.1270 B( 11-C , 22-H ) :   0.9002 B( 11-C , 23-H ) :   0.9019
B( 12-C , 24-H ) :   0.9288 B( 12-C , 25-H ) :   0.9405 B( 12-C , 26-H ) :   0.9281

Dispersion correction           -0.028792891
FINAL SINGLE POINT ENERGY      -464.822957981110

DIPOLE MOMENT
-------------

Method             : SCF
Type of density    : Electron Density
Multiplicity       :   1
Irrep              :   0
Energy             :  -464.9086084613528556 Eh
Relativity type    :
Basis              : AO
                                X                 Y                 Z
Electronic contribution:     -3.835338837      -5.803728241       0.909508334
Nuclear contribution   :      4.457054546       6.608173942      -0.774067306
                        -----------------------------------------
Total Dipole Moment    :      0.621715709       0.804445702       0.135441028
                        -----------------------------------------
Magnitude (a.u.)       :      1.025674209
Magnitude (Debye)      :      2.607056652

Rotational constants in cm-1:             0.070903             0.023031             0.020800
Rotational constants in MHz :          2125.627099           690.453829           623.582101

                             ****ORCA TERMINATED NORMALLY****
TOTAL RUN TIME: 0 days 0 hours 0 minutes 16 seconds 942 msec
