                         Program Version 6.0.0  -   RELEASE  -
|  1> ! wb97x-v def2-tzvp def2/J RIJCOSX DEFGRID2 scfconv7 GCP(DFT/TZ) printgap
|  2> %output
|  3>     printlevel normal
|  4> end
|  5> * xyz 0 1
|  6> C -2.7303167647232187 -0.03561101705899117 1.0719141083090744
|  7> C -1.7802572478697347 0.14994620903428024 -0.072650631334516
|  8> O -2.172567973896179 0.15779392943309578 -1.2374925873074656
|  9> C -0.3202347801675216 0.3126131807443509 0.2740009894556147
| 10> C 0.45204678170274026 1.1541672425918226 -0.7437518762487709
| 11> C 1.9255320038199117 1.2633634728328564 -0.3482321905189724
| 12> C 2.5626650249918304 -0.12112499367496736 -0.2157445214859143
| 13> C 1.7872107707410008 -0.9924325300320154 0.773359431467459
| 14> C 0.3104517098367132 -1.0965801077518915 0.38853099695485216
| 15> H -2.3046643774581357 -0.6941565722304578 1.8352656662746902
| 16> H -2.8736838830454845 0.9436393553979444 1.5473629406419165
| 17> H -3.6958923875158027 -0.4117918571547663 0.7299055596200528
| 18> H -0.26008810277527616 0.781886881090465 1.265980441329295
| 19> H 0.3740280564289545 0.6814869803650654 -1.7306747599405912
| 20> H -0.0009632640575517209 2.149191668148351 -0.8241193437304281
| 21> H 2.466661544710371 1.8615754778140818 -1.0903467958367716
| 22> H 2.0057386399125092 1.7932528025977617 0.6110091998325169
| 23> H 2.5682147204441064 -0.6101796485526402 -1.1997799129680375
| 24> H 3.607552101844531 -0.029269319007784622 0.102489904786757
| 25> H 2.2236881364839274 -1.9968844511310548 0.8216804175306417
| 26> H 1.865047772978102 -0.5586566879044502 1.7795580067169354
| 27> H 0.2148652327765584 -1.5985406369553223 -0.5838141896267341
| 28> H -0.2336229141165262 -1.697822256539031 1.1252564611208917
| 29> *
| 30>
| 31>                          ****END OF INPUT****

CARTESIAN COORDINATES (ANGSTROEM)
---------------------------------
  C     -2.730317   -0.035611    1.071914
  C     -1.780257    0.149946   -0.072651
  O     -2.172568    0.157794   -1.237493
  C     -0.320235    0.312613    0.274001
  C      0.452047    1.154167   -0.743752
  C      1.925532    1.263363   -0.348232
  C      2.562665   -0.121125   -0.215745
  C      1.787211   -0.992433    0.773359
  C      0.310452   -1.096580    0.388531
  H     -2.304664   -0.694157    1.835266
  H     -2.873684    0.943639    1.547363
  H     -3.695892   -0.411792    0.729906
  H     -0.260088    0.781887    1.265980
  H      0.374028    0.681487   -1.730675
  H     -0.000963    2.149192   -0.824119
  H      2.466662    1.861575   -1.090347
  H      2.005739    1.793253    0.611009
  H      2.568215   -0.610180   -1.199780
  H      3.607552   -0.029269    0.102490
  H      2.223688   -1.996884    0.821680
  H      1.865048   -0.558657    1.779558
  H      0.214865   -1.598541   -0.583814
  H     -0.233623   -1.697822    1.125256

 Total Charge           Charge          ....    0
 Multiplicity           Mult            ....    1
 Number of Electrons    NEL             ....   70
 Basis Dimension        Dim             ....  363

ORBITAL ENERGIES
----------------

  NO   OCC          E(Eh)            E(eV)
   0   2.0000     -21.655066      -589.2643
   1   2.0000     -12.133381      -330.1661
   2   2.0000     -12.057087      -328.0900
   3   2.0000     -12.053017      -327.9793
   4   2.0000     -12.051301      -327.9326
   5   2.0000     -12.045955      -327.7871
   6   2.0000     -12.042287      -327.6873
   7   2.0000     -12.041256      -327.6592
   8   2.0000     -12.039977      -327.6244
   9   2.0000      -1.697305       -46.1860
  10   2.0000      -1.352814       -36.8119
  11   2.0000      -1.287834       -35.0438
  12   2.0000      -1.253966       -34.1221
  13   2.0000      -1.240568       -33.7576
  14   2.0000      -1.132485       -30.8165
  15   2.0000      -1.102102       -29.9897
  16   2.0000      -1.071757       -29.1640
  17   2.0000      -1.024532       -27.8789
  18   2.0000      -0.968905       -26.3653
  19   2.0000      -0.956391       -26.0247
  20   2.0000      -0.910340       -24.7716
  21   2.0000      -0.900103       -24.4930
  22   2.0000      -0.877313       -23.8729
  23   2.0000      -0.875093       -23.8125
  24   2.0000      -0.860123       -23.4051
  25   2.0000      -0.844112       -22.9695
  26   2.0000      -0.834027       -22.6950
  27   2.0000      -0.829445       -22.5703
  28   2.0000      -0.824849       -22.4453
  29   2.0000      -0.805106       -21.9080
  30   2.0000      -0.784954       -21.3597
  31   2.0000      -0.780197       -21.2302
  32   2.0000      -0.758648       -20.6438
  33   2.0000      -0.754323       -20.5262
  34   2.0000      -0.740620       -20.1533
  35   0.0000      -0.308794        -8.4027
  36   0.0000      -0.061555        -1.6750
  37   0.0000      -0.048114        -1.3093
  38   0.0000      -0.035668        -0.9706
  39   0.0000      -0.027831        -0.7573

MULLIKEN ATOMIC CHARGES
-----------------------
   0 C :   -0.368102
   1 C :    0.219050
   2 O :   -0.322212
   3 C :   -0.037061
   4 C :   -0.213003
   5 C :   -0.167462
   6 C :   -0.186161
   7 C :   -0.172845
   8 C :   -0.241957
   9 H :    0.122588
  10 H :    0.132236
  11 H :    0.139416
  12 H :    0.080360
  13 H :    0.116864
  14 H :    0.103385
  15 H :    0.103934
  16 H :    0.086399
  17 H :    0.091777
  18 H :    0.103351
  19 H :    0.104044
  20 H :    0.089823
  21 H :    0.117360
  22 H :    0.098217
Sum of atomic charges:   -0.0000000

LOEWDIN ATOMIC CHARGES
----------------------
   0 C :   -0.258990
   1 C :   -0.315775
   2 O :    0.107252
   3 C :   -0.225140
   4 C :   -0.224914
   5 C :   -0.257819
   6 C :   -0.259337
   7 C :   -0.257455
   8 C :   -0.219262
   9 H :    0.129321
  10 H :    0.139116
  11 H :    0.130326
  12 H :    0.157554
  13 H :    0.144598
  14 H :    0.136754
  15 H :    0.132525
  16 H :    0.132377
  17 H :    0.135122
  18 H :    0.131476
  19 H :    0.132867
  20 H :    0.133643
  21 H :    0.143367
  22 H :    0.132395

  Mayer bond orders larger than 0.100000
B(  0-C ,  1-C ) :   0.9813 B(  0-C ,  9-H ) :   0.9608 B(  0-C , 10-H ) :   0.9527
B(  0-C , 11-H ) :   0.9840 B(  1-C ,  2-O ) :   2.1336 B(  1-C ,  3-C ) :   0.8968
B(  3-C ,  4-C ) :   0.9749 B(  3-C ,  8-C ) :   0.9519 B(  3-C , 12-H ) :   0.9550
B(  4-C ,  5-C ) :   0.9823 B(  4-C , 13-H ) :   0.9719 B(  4-C , 14-H ) :   0.9778
B(  5-C ,  6-C ) :   0.9881 B(  5-C , 15-H ) :   0.9775 B(  5-C , 16-H ) :   0.9728
B(  6-C ,  7-C ) :   0.9920 B(  6-C , 17-H ) :   0.9735 B(  6-C , 18-H ) :   0.9763
B(  7-C ,  8-C ) :   0.9866 B(  7-C , 19-H ) :   0.9768 B(  7-C , 20-H ) :   0.9750
B(  8-C , 21-H ) :   0.9747 B(  8-C , 22-H ) :   0.9655

FINAL SINGLE POINT ENERGY      -388.543293829610

DIPOLE MOMENT
-------------

Method             : SCF
Type of density    : Electron Density
Multiplicity       :   1
Irrep              :   0
Energy             :  -388.5590327283103989 Eh
Relativity type    :
Basis              : AO
                                X                 Y                 Z
Electronic contribution:     -5.270083371       0.506705643      -3.224942301
Nuclear contribution   :      5.790384509      -0.543247681       4.290989451
                        -----------------------------------------
Total Dipole Moment    :      0.520301138      -0.036542038       1.066047150
                        -----------------------------------------
Magnitude (a.u.)       :      1.186804584
Magnitude (Debye)      :      3.016617517

Rotational constants in cm-1:             0.102903             0.035159             0.030305
Rotational constants in MHz :          3084.954640          1054.047738           908.525374

                             ****ORCA TERMINATED NORMALLY****
TOTAL RUN TIME: 0 days 0 hours 3 minutes 39 seconds 414 msec
