                         Program Version 6.0.0  -   RELEASE  -
|  1> ! wb97x-v def2-tzvp def2/J RIJCOSX DEFGRID2 scfconv7 GCP(DFT/TZ) printgap
|  2> %output
|  3>     printlevel normal
|  4> end
|  5> %cpcm
|  6>     smd true
|  7>     smdsolvent "water"
|  8> end
|  9> * xyz 0 1
| 10> C -2.7303167647232187 -0.03561101705899117 1.0719141083090744
| 11> C -1.7802572478697347 0.14994620903428024 -0.072650631334516
| 12> O -2.172567973896179 0.15779392943309578 -1.2374925873074656
| 13> C -0.3202347801675216 0.3126131807443509 0.2740009894556147
| 14> C 0.45204678170274026 1.1541672425918226 -0.7437518762487709
| 15> C 1.9255320038199117 1.2633634728328564 -0.3482321905189724
| 16> C 2.5626650249918304 -0.12112499367496736 -0.2157445214859143
| 17> C 1.7872107707410008 -0.9924325300320154 0.773359431467459
| 18> C 0.3104517098367132 -1.0965801077518915 0.38853099695485216
| 19> H -2.3046643774581357 -0.6941565722304578 1.8352656662746902
| 20> H -2.8736838830454845 0.9436393553979444 1.5473629406419165
| 21> H -3.6958923875158027 -0.4117918571547663 0.7299055596200528
| 22> H -0.26008810277527616 0.781886881090465 1.265980441329295
| 23> H 0.3740280564289545 0.6814869803650654 -1.7306747599405912
| 24> H -0.0009632640575517209 2.149191668148351 -0.8241193437304281
| 25> H 2.466661544710371 1.8615754778140818 -1.0903467958367716
| 26> H 2.0057386399125092 1.7932528025977617 0.6110091998325169
| 27> H 2.5682147204441064 -0.6101796485526402 -1.1997799129680375
| 28> H 3.607552101844531 -0.029269319007784622 0.102489904786757
| 29> H 2.2236881364839274 -1.9968844511310548 0.8216804175306417
| 30> H 1.865047772978102 -0.5586566879044502 1.7795580067169354
| 31> H 0.2148652327765584 -1.5985406369553223 -0.5838141896267341
| 32> H -0.2336229141165262 -1.697822256539031 1.1252564611208917
| 33> *
| 34>
| 35>                          ****END OF INPUT****

CARTESIAN COORDINATES (ANGSTROEM)
---------------------------------
  C     -2.730317   -0.035611    1.071914
  C     -1.780257    0.149946   -0.072651
  O     -2.172568    0.157794   -1.237493
  C     -0.320235    0.312613    0.274001
  C      0.452047    1.154167   -0.743752
  C      1.925532    1.263363   -0.348232
  C      2.562665   -0.121125   -0.215745
  C      1.787211   -0.992433    0.773359
  C      0.310452   -1.096580    0.388531
  H     -2.304664   -0.694157    1.835266
  H     -2.873684    0.943639    1.547363
  H     -3.695892   -0.411792    0.729906
  H     -0.260088    0.781887    1.265980
  H      0.374028    0.681487   -1.730675
  H     -0.000963    2.149192   -0.824119
  H      2.466662    1.861575   -1.090347
  H      2.005739    1.793253    0.611009
  H      2.568215   -0.610180   -1.199780
  H      3.607552   -0.029269    0.102490
  H      2.223688   -1.996884    0.821680
  H      1.865048   -0.558657    1.779558
  H      0.214865   -1.598541   -0.583814
  H     -0.233623   -1.697822    1.125256

 Total Charge           Charge          ....    0
 Multiplicity           Mult            ....    1
 Number of Electrons    NEL             ....   70
 Basis Dimension        Dim             ....  363

ORBITAL ENERGIES
----------------

  NO   OCC          E(Eh)            E(eV)
   0   2.0000     -21.666194      -589.5671
   1   2.0000     -12.140885      -330.3703
   2   2.0000     -12.047287      -327.8233
   3   2.0000     -12.039664      -327.6159
   4   2.0000     -12.038752      -327.5911
   5   2.0000     -12.032844      -327.4303
   6   2.0000     -12.031768      -327.4011
   7   2.0000     -12.030382      -327.3633
   8   2.0000     -12.028766      -327.3194
   9   2.0000      -1.711964       -46.5849
  10   2.0000      -1.342578       -36.5334
  11   2.0000      -1.279401       -34.8143
  12   2.0000      -1.242558       -33.8117
  13   2.0000      -1.230916       -33.4949
  14   2.0000      -1.126632       -30.6572
  15   2.0000      -1.090924       -29.6855
  16   2.0000      -1.079833       -29.3837
  17   2.0000      -1.014932       -27.6177
  18   2.0000      -0.970344       -26.4044
  19   2.0000      -0.953726       -25.9522
  20   2.0000      -0.919870       -25.0309
  21   2.0000      -0.890516       -24.2322
  22   2.0000      -0.865921       -23.5629
  23   2.0000      -0.863987       -23.5103
  24   2.0000      -0.851312       -23.1654
  25   2.0000      -0.835158       -22.7258
  26   2.0000      -0.824912       -22.4470
  27   2.0000      -0.819745       -22.3064
  28   2.0000      -0.813185       -22.1279
  29   2.0000      -0.799792       -21.7634
  30   2.0000      -0.774756       -21.0822
  31   2.0000      -0.768533       -20.9128
  32   2.0000      -0.749393       -20.3920
  33   2.0000      -0.743077       -20.2202
  34   2.0000      -0.728542       -19.8246
  35   0.0000      -0.307020        -8.3544
  36   0.0000      -0.053751        -1.4626
  37   0.0000      -0.038645        -1.0516
  38   0.0000      -0.022753        -0.6191
  39   0.0000      -0.014164        -0.3854

MULLIKEN ATOMIC CHARGES
-----------------------
   0 C :   -0.410913
   1 C :    0.303856
   2 O :   -0.465893
   3 C :   -0.039010
   4 C :   -0.225207
   5 C :   -0.195064
   6 C :   -0.208157
   7 C :   -0.194206
   8 C :   -0.253623
   9 H :    0.159259
  10 H :    0.165928
  11 H :    0.143513
  12 H :    0.110864
  13 H :    0.102194
  14 H :    0.118872
  15 H :    0.113884
  16 H :    0.101532
  17 H :    0.098590
  18 H :    0.114468
  19 H :    0.114954
  20 H :    0.103806
  21 H :    0.114657
  22 H :    0.125694
Sum of atomic charges:   -0.0000000

LOEWDIN ATOMIC CHARGES
----------------------
   0 C :   -0.252563
   1 C :   -0.293903
   2 O :    0.026128
   3 C :   -0.217959
   4 C :   -0.231300
   5 C :   -0.258499
   6 C :   -0.262058
   7 C :   -0.257687
   8 C :   -0.216700
   9 H :    0.142289
  10 H :    0.151243
  11 H :    0.130328
  12 H :    0.169463
  13 H :    0.139192
  14 H :    0.138204
  15 H :    0.133699
  16 H :    0.136577
  17 H :    0.136083
  18 H :    0.133003
  19 H :    0.134887
  20 H :    0.137472
  21 H :    0.142407
  22 H :    0.139694

  Mayer bond orders larger than 0.100000
B(  0-C ,  1-C ) :   1.0097 B(  0-C ,  9-H ) :   0.9504 B(  0-C , 10-H ) :   0.9409
B(  0-C , 11-H ) :   0.9742 B(  1-C ,  2-O ) :   1.9711 B(  1-C ,  3-C ) :   0.9100
B(  3-C ,  4-C ) :   0.9812 B(  3-C ,  8-C ) :   0.9532 B(  3-C , 12-H ) :   0.9486
B(  4-C ,  5-C ) :   0.9954 B(  4-C , 13-H ) :   0.9616 B(  4-C , 14-H ) :   0.9747
B(  5-C ,  6-C ) :   0.9896 B(  5-C , 15-H ) :   0.9746 B(  5-C , 16-H ) :   0.9721
B(  6-C ,  7-C ) :   0.9912 B(  6-C , 17-H ) :   0.9724 B(  6-C , 18-H ) :   0.9734
B(  7-C ,  8-C ) :   0.9865 B(  7-C , 19-H ) :   0.9737 B(  7-C , 20-H ) :   0.9736
B(  8-C , 21-H ) :   0.9705 B(  8-C , 22-H ) :   0.9616

FINAL SINGLE POINT ENERGY      -388.551050448517

DIPOLE MOMENT
-------------

Method             : SCF
Type of density    : Electron Density
Multiplicity       :   1
Irrep              :   0
Energy             :  -388.5667893472173091 Eh
Relativity type    :
Basis              : AO
                                X                 Y                 Z
Electronic contribution:     -5.084493244       0.499214643      -2.605087165
Nuclear contribution   :      5.790384509      -0.543247681       4.290989451
                        -----------------------------------------
Total Dipole Moment    :      0.705891265      -0.044033039       1.685902286
                        -----------------------------------------
Magnitude (a.u.)       :      1.828247222
Magnitude (Debye)      :      4.647035133

Rotational constants in cm-1:             0.102903             0.035159             0.030305
Rotational constants in MHz :          3084.954640          1054.047738           908.525374

                             ****ORCA TERMINATED NORMALLY****
TOTAL RUN TIME: 0 days 0 hours 3 minutes 46 seconds 713 msec
