                         Program Version 6.0.0  -   RELEASE  -
|  1> ! pbe def2-sv(p) def2/J RI DEFGRID1 loosescf d4 GCP(DFT/SV(P)) printgap
|  2> %output
|  3>     printlevel normal
|  4> end
|  5> * xyz 0 1
|  6> C -0.6778956479 -1.2404158928 8.46468e-05
|  7> O -1.2573038162 -2.3000808037 -4.86799e-05
|  8> N -1.3338712379 -0.0312563489 -1.02968e-05
|  9> C -0.7352276291 1.2072221309 0.0001687914
| 10> O -1.3633920122 2.2387664127 -0.0001267524
| 11> N 0.6399092672 1.1708828161 9.67162e-05
| 12> C 1.413190935 0.0332399165 -3.45459e-05
| 13> O 2.6206336322 0.0610757509 -4.7644e-05
| 14> N 0.6939870393 -1.1394271926 4.70992e-05
| 15> H -2.3495447423 -0.0551840836 -0.0001728119
| 16> H 1.1266982009 2.0626372515 -0.0001811361
| 17> H 1.2226792239 -2.0069843207 -0.0005688478
| 18> *
| 19>
| 20>                          ****END OF INPUT****

CARTESIAN COORDINATES (ANGSTROEM)
---------------------------------
  C     -0.677896   -1.240416    0.000085
  O     -1.257304   -2.300081   -0.000049
  N     -1.333871   -0.031256   -0.000010
  C     -0.735228    1.207222    0.000169
  O     -1.363392    2.238766   -0.000127
  N      0.639909    1.170883    0.000097
  C      1.413191    0.033240   -0.000035
  O      2.620634    0.061076   -0.000048
  N      0.693987   -1.139427    0.000047
  H     -2.349545   -0.055184   -0.000173
  H      1.126698    2.062637   -0.000181
  H      1.222679   -2.006984   -0.000569

 Total Charge           Charge          ....    0
 Multiplicity           Mult            ....    1
 Number of Electrons    NEL             ....   66
 Basis Dimension        Dim             ....  132

ORBITAL ENERGIES
----------------

  NO   OCC          E(Eh)            E(eV)
   0   2.0000     -18.756924      -510.4019
   1   2.0000     -18.756918      -510.4017
   2   2.0000     -18.756879      -510.4006
   3   2.0000     -14.067406      -382.7936
   4   2.0000     -14.067391      -382.7932
   5   2.0000     -14.067364      -382.7924
   6   2.0000     -10.054271      -273.5906
   7   2.0000     -10.054262      -273.5904
   8   2.0000     -10.054249      -273.5900
   9   2.0000      -1.023050       -27.8386
  10   2.0000      -0.982411       -26.7328
  11   2.0000      -0.982403       -26.7325
  12   2.0000      -0.905892       -24.6506
  13   2.0000      -0.862495       -23.4697
  14   2.0000      -0.862458       -23.4687
  15   2.0000      -0.642602       -17.4861
  16   2.0000      -0.642583       -17.4856
  17   2.0000      -0.604465       -16.4483
  18   2.0000      -0.578018       -15.7287
  19   2.0000      -0.481099       -13.0914
  20   2.0000      -0.481076       -13.0907
  21   2.0000      -0.475978       -12.9520
  22   2.0000      -0.409419       -11.1408
  23   2.0000      -0.401622       -10.9287
  24   2.0000      -0.401612       -10.9284
  25   2.0000      -0.392587       -10.6828
  26   2.0000      -0.392580       -10.6826
  27   2.0000      -0.275724        -7.5028
  28   2.0000      -0.275699        -7.5022
  29   2.0000      -0.270989        -7.3740
  30   2.0000      -0.270971        -7.3735
  31   2.0000      -0.269326        -7.3287
  32   2.0000      -0.234639        -6.3848
  33   0.0000      -0.047375        -1.2891
  34   0.0000      -0.047360        -1.2887
  35   0.0000       0.013170         0.3584
  36   0.0000       0.044835         1.2200
  37   0.0000       0.044857         1.2206

MULLIKEN ATOMIC CHARGES
-----------------------
   0 C :    0.147682
   1 O :   -0.162218
   2 N :   -0.253047
   3 C :    0.147660
   4 O :   -0.162277
   5 N :   -0.252906
   6 C :    0.147525
   7 O :   -0.162217
   8 N :   -0.253032
   9 H :    0.267614
  10 H :    0.267606
  11 H :    0.267610
Sum of atomic charges:   -0.0000000

LOEWDIN ATOMIC CHARGES
----------------------
   0 C :    0.033525
   1 O :   -0.170034
   2 N :   -0.131400
   3 C :    0.033545
   4 O :   -0.170076
   5 N :   -0.131389
   6 C :    0.033525
   7 O :   -0.170064
   8 N :   -0.131425
   9 H :    0.267929
  10 H :    0.267933
  11 H :    0.267929

  Mayer bond orders larger than 0.100000
B(  0-C ,  1-O ) :   2.1672 B(  0-C ,  2-N ) :   1.0786 B(  0-C ,  8-N ) :   1.0786
B(  2-N ,  3-C ) :   1.0788 B(  2-N ,  9-H ) :   0.8323 B(  3-C ,  4-O ) :   2.1670
B(  3-C ,  5-N ) :   1.0786 B(  5-N ,  6-C ) :   1.0787 B(  5-N , 10-H ) :   0.8323
B(  6-C ,  7-O ) :   2.1671 B(  6-C ,  8-N ) :   1.0786 B(  8-N , 11-H ) :   0.8323

Dispersion correction           -0.012263340
FINAL SINGLE POINT ENERGY      -505.175535430614

DIPOLE MOMENT
-------------

Method             : SCF
Type of density    : Electron Density
Multiplicity       :   1
Irrep              :   0
Energy             :  -505.2253222334490488 Eh
Relativity type    :
Basis              : AO
                                X                 Y                 Z
Electronic contribution:      0.000025942      -0.000140797       0.000566588
Nuclear contribution   :     -0.000157756       0.000437425      -0.000868312
                        -----------------------------------------
Total Dipole Moment    :     -0.000131814       0.000296628      -0.000301724
                        -----------------------------------------
Magnitude (a.u.)       :      0.000443171
Magnitude (Debye)      :      0.001126452

Rotational constants in cm-1:             0.068349             0.068343             0.034173
Rotational constants in MHz :          2049.050884          2048.880649          1024.482887

                             ****ORCA TERMINATED NORMALLY****
TOTAL RUN TIME: 0 days 0 hours 0 minutes 7 seconds 712 msec
