                         Program Version 6.0.0  -   RELEASE  -
|  1> ! r2scan-3c def2/J RI DEFGRID2 scfconv6 printgap
|  2> %output
|  3>     printlevel normal
|  4> end
|  5> * xyz 0 1
|  6> C -2.5528581569 -0.6717440951 -0.370500795
|  7> C -1.1729161721 -0.313908004 0.1754101143
|  8> H -1.2356997346 -0.2689241135 1.2737850049
|  9> C -0.6915612035 1.0462696161 -0.3486811081
| 10> H -0.6540617076 1.0096218349 -1.4490179175
| 11> C 0.7271372786 1.3185505329 0.1676998024
| 12> H 0.6941783821 1.4210817032 1.2644643161
| 13> C 1.6497660659 0.1463374605 -0.1759664793
| 14> H 1.7528570598 0.0740107642 -1.2692020081
| 15> C 1.0190085487 -1.1646694531 0.3220542152
| 16> H 0.9601550166 -1.1311457942 1.4318558276
| 17> O -0.2718607725 -1.3335639214 -0.2083011838
| 18> O 1.8109530281 -2.2130030996 -0.1044141311
| 19> O 2.8941487423 0.3849858682 0.4293055512
| 20> O 1.1697468579 2.5191557355 -0.4149974418
| 21> O -1.5875162203 2.0364772979 0.0778039173
| 22> O -3.0994174922 -1.6981887521 0.4237737808
| 23> H -2.4339234942 -0.9989368926 -1.4097195276
| 24> H -3.1716302615 0.2316831439 -0.3275226914
| 25> H 1.3185462832 -3.0446658712 -0.0223794509
| 26> H 3.4734054849 -0.3746440976 0.2688889971
| 27> H 2.0965856798 2.657497836 -0.1696497402
| 28> H -1.2068271285 2.9016373217 -0.141774876
| 29> H -3.9628655945 -1.949380161 0.0658339816
| 30> *
| 31>
| 32>                          ****END OF INPUT****

CARTESIAN COORDINATES (ANGSTROEM)
---------------------------------
  C     -2.552858   -0.671744   -0.370501
  C     -1.172916   -0.313908    0.175410
  H     -1.235700   -0.268924    1.273785
  C     -0.691561    1.046270   -0.348681
  H     -0.654062    1.009622   -1.449018
  C      0.727137    1.318551    0.167700
  H      0.694178    1.421082    1.264464
  C      1.649766    0.146337   -0.175966
  H      1.752857    0.074011   -1.269202
  C      1.019009   -1.164669    0.322054
  H      0.960155   -1.131146    1.431856
  O     -0.271861   -1.333564   -0.208301
  O      1.810953   -2.213003   -0.104414
  O      2.894149    0.384986    0.429306
  O      1.169747    2.519156   -0.414997
  O     -1.587516    2.036477    0.077804
  O     -3.099417   -1.698189    0.423774
  H     -2.433923   -0.998937   -1.409720
  H     -3.171630    0.231683   -0.327523
  H      1.318546   -3.044666   -0.022379
  H      3.473405   -0.374644    0.268889
  H      2.096586    2.657498   -0.169650
  H     -1.206827    2.901637   -0.141775
  H     -3.962866   -1.949380    0.065834

 Total Charge           Charge          ....    0
 Multiplicity           Mult            ....    1
 Number of Electrons    NEL             ....   96
 Basis Dimension        Dim             ....  318

ORBITAL ENERGIES
----------------

  NO   OCC          E(Eh)            E(eV)
   0   2.0000     -18.972874      -516.2782
   1   2.0000     -18.970523      -516.2142
   2   2.0000     -18.966366      -516.1010
   3   2.0000     -18.963172      -516.0141
   4   2.0000     -18.958412      -515.8846
   5   2.0000     -18.951782      -515.7042
   6   2.0000     -10.139984      -275.9230
   7   2.0000     -10.093373      -274.6546
   8   2.0000     -10.092614      -274.6340
   9   2.0000     -10.092349      -274.6268
  10   2.0000     -10.090585      -274.5788
  11   2.0000     -10.079122      -274.2669
  12   2.0000      -1.055178       -28.7129
  13   2.0000      -1.016512       -27.6607
  14   2.0000      -1.005793       -27.3690
  15   2.0000      -0.992305       -27.0020
  16   2.0000      -0.987415       -26.8689
  17   2.0000      -0.981966       -26.7206
  18   2.0000      -0.754565       -20.5328
  19   2.0000      -0.739985       -20.1360
  20   2.0000      -0.658223       -17.9112
  21   2.0000      -0.616882       -16.7862
  22   2.0000      -0.587134       -15.9767
  23   2.0000      -0.558345       -15.1934
  24   2.0000      -0.537848       -14.6356
  25   2.0000      -0.503287       -13.6951
  26   2.0000      -0.496500       -13.5105
  27   2.0000      -0.487131       -13.2555
  28   2.0000      -0.476375       -12.9628
  29   2.0000      -0.460450       -12.5295
  30   2.0000      -0.435283       -11.8447
  31   2.0000      -0.421391       -11.4666
  32   2.0000      -0.408471       -11.1151
  33   2.0000      -0.400360       -10.8943
  34   2.0000      -0.380847       -10.3634
  35   2.0000      -0.379174       -10.3179
  36   2.0000      -0.350455        -9.5364
  37   2.0000      -0.344751        -9.3812
  38   2.0000      -0.334043        -9.0898
  39   2.0000      -0.319066        -8.6822
  40   2.0000      -0.308067        -8.3829
  41   2.0000      -0.292139        -7.9495
  42   2.0000      -0.274838        -7.4787
  43   2.0000      -0.266489        -7.2515
  44   2.0000      -0.253533        -6.8990
  45   2.0000      -0.247649        -6.7389
  46   2.0000      -0.237649        -6.4668
  47   2.0000      -0.226854        -6.1730
  48   0.0000       0.033985         0.9248
  49   0.0000       0.048027         1.3069
  50   0.0000       0.062323         1.6959
  51   0.0000       0.077872         2.1190
  52   0.0000       0.088580         2.4104

MULLIKEN ATOMIC CHARGES
-----------------------
   0 C :   -0.239592
   1 C :   -0.078399
   2 H :    0.182497
   3 C :    0.032654
   4 H :    0.165759
   5 C :   -0.055958
   6 H :    0.170987
   7 C :    0.056767
   8 H :    0.170604
   9 C :   -0.053542
  10 H :    0.146407
  11 O :   -0.190609
  12 O :   -0.405181
  13 O :   -0.445351
  14 O :   -0.444046
  15 O :   -0.443755
  16 O :   -0.417595
  17 H :    0.133588
  18 H :    0.159747
  19 H :    0.314362
  20 H :    0.314101
  21 H :    0.315202
  22 H :    0.315708
  23 H :    0.295646
Sum of atomic charges:    0.0000000

LOEWDIN ATOMIC CHARGES
----------------------
   0 C :    0.049468
   1 C :    0.129629
   2 H :    0.194153
   3 C :    0.116656
   4 H :    0.183989
   5 C :    0.108899
   6 H :    0.186415
   7 C :    0.115985
   8 H :    0.188460
   9 C :    0.297039
  10 H :    0.179713
  11 O :   -0.671962
  12 O :   -0.505277
  13 O :   -0.573964
  14 O :   -0.576868
  15 O :   -0.582292
  16 O :   -0.602670
  17 H :    0.170520
  18 H :    0.182561
  19 H :    0.287332
  20 H :    0.283439
  21 H :    0.284068
  22 H :    0.284974
  23 H :    0.269735

  Mayer bond orders larger than 0.100000
B(  0-C ,  1-C ) :   0.9950 B(  0-C , 16-O ) :   0.9663 B(  0-C , 17-H ) :   0.9744
B(  0-C , 18-H ) :   0.9582 B(  1-C ,  2-H ) :   0.9641 B(  1-C ,  3-C ) :   0.8610
B(  1-C , 11-O ) :   0.8077 B(  3-C ,  4-H ) :   0.9591 B(  3-C ,  5-C ) :   0.8794
B(  3-C , 15-O ) :   0.8611 B(  5-C ,  6-H ) :   0.9894 B(  5-C ,  7-C ) :   0.8580
B(  5-C , 14-O ) :   0.9189 B(  7-C ,  8-H ) :   0.9674 B(  7-C ,  9-C ) :   0.8049
B(  7-C , 13-O ) :   0.9008 B(  9-C , 10-H ) :   1.0035 B(  9-C , 11-O ) :   0.9274
B(  9-C , 12-O ) :   1.0360 B( 12-O , 19-H ) :   0.8760 B( 13-O , 20-H ) :   0.8811
B( 14-O , 21-H ) :   0.8778 B( 15-O , 22-H ) :   0.8776 B( 16-O , 23-H ) :   0.8974

Dispersion correction           -0.007892992
FINAL SINGLE POINT ENERGY      -687.076625212820

DIPOLE MOMENT
-------------

Method             : SCF
Type of density    : Electron Density
Multiplicity       :   1
Irrep              :   0
Energy             :  -687.0880268931172168 Eh
Relativity type    :
Basis              : AO
                                X                 Y                 Z
Electronic contribution:      2.233620215      -0.718303450       0.194391859
Nuclear contribution   :     -2.209216835       0.490694023      -0.451475467
                        -----------------------------------------
Total Dipole Moment    :      0.024403380      -0.227609427      -0.257083608
                        -----------------------------------------
Magnitude (a.u.)       :      0.344228932
Magnitude (Debye)      :      0.874960411

Rotational constants in cm-1:             0.039799             0.025681             0.016369
Rotational constants in MHz :          1193.147617           769.900243           490.726610

                             ****ORCA TERMINATED NORMALLY****
TOTAL RUN TIME: 0 days 0 hours 0 minutes 48 seconds 579 msec
