                         Program Version 6.0.0  -   RELEASE  -
|  1> ! r2scan-3c def2/J RI DEFGRID2 scfconv6 printgap
|  2> %output
|  3>     printlevel normal
|  4> end
|  5> %cpcm
|  6>     smd true
|  7>     smdsolvent "water"
|  8> end
|  9> * xyz 0 1
| 10> C -2.5528581569 -0.6717440951 -0.370500795
| 11> C -1.1729161721 -0.313908004 0.1754101143
| 12> H -1.2356997346 -0.2689241135 1.2737850049
| 13> C -0.6915612035 1.0462696161 -0.3486811081
| 14> H -0.6540617076 1.0096218349 -1.4490179175
| 15> C 0.7271372786 1.3185505329 0.1676998024
| 16> H 0.6941783821 1.4210817032 1.2644643161
| 17> C 1.6497660659 0.1463374605 -0.1759664793
| 18> H 1.7528570598 0.0740107642 -1.2692020081
| 19> C 1.0190085487 -1.1646694531 0.3220542152
| 20> H 0.9601550166 -1.1311457942 1.4318558276
| 21> O -0.2718607725 -1.3335639214 -0.2083011838
| 22> O 1.8109530281 -2.2130030996 -0.1044141311
| 23> O 2.8941487423 0.3849858682 0.4293055512
| 24> O 1.1697468579 2.5191557355 -0.4149974418
| 25> O -1.5875162203 2.0364772979 0.0778039173
| 26> O -3.0994174922 -1.6981887521 0.4237737808
| 27> H -2.4339234942 -0.9989368926 -1.4097195276
| 28> H -3.1716302615 0.2316831439 -0.3275226914
| 29> H 1.3185462832 -3.0446658712 -0.0223794509
| 30> H 3.4734054849 -0.3746440976 0.2688889971
| 31> H 2.0965856798 2.657497836 -0.1696497402
| 32> H -1.2068271285 2.9016373217 -0.141774876
| 33> H -3.9628655945 -1.949380161 0.0658339816
| 34> *
| 35>
| 36>                          ****END OF INPUT****

CARTESIAN COORDINATES (ANGSTROEM)
---------------------------------
  C     -2.552858   -0.671744   -0.370501
  C     -1.172916   -0.313908    0.175410
  H     -1.235700   -0.268924    1.273785
  C     -0.691561    1.046270   -0.348681
  H     -0.654062    1.009622   -1.449018
  C      0.727137    1.318551    0.167700
  H      0.694178    1.421082    1.264464
  C      1.649766    0.146337   -0.175966
  H      1.752857    0.074011   -1.269202
  C      1.019009   -1.164669    0.322054
  H      0.960155   -1.131146    1.431856
  O     -0.271861   -1.333564   -0.208301
  O      1.810953   -2.213003   -0.104414
  O      2.894149    0.384986    0.429306
  O      1.169747    2.519156   -0.414997
  O     -1.587516    2.036477    0.077804
  O     -3.099417   -1.698189    0.423774
  H     -2.433923   -0.998937   -1.409720
  H     -3.171630    0.231683   -0.327523
  H      1.318546   -3.044666   -0.022379
  H      3.473405   -0.374644    0.268889
  H      2.096586    2.657498   -0.169650
  H     -1.206827    2.901637   -0.141775
  H     -3.962866   -1.949380    0.065834

 Total Charge           Charge          ....    0
 Multiplicity           Mult            ....    1
 Number of Electrons    NEL             ....   96
 Basis Dimension        Dim             ....  318

ORBITAL ENERGIES
----------------

  NO   OCC          E(Eh)            E(eV)
   0   2.0000     -18.975116      -516.3392
   1   2.0000     -18.969308      -516.1811
   2   2.0000     -18.963982      -516.0362
   3   2.0000     -18.961878      -515.9789
   4   2.0000     -18.961666      -515.9732
   5   2.0000     -18.955635      -515.8090
   6   2.0000     -10.136217      -275.8205
   7   2.0000     -10.091735      -274.6101
   8   2.0000     -10.089805      -274.5576
   9   2.0000     -10.088288      -274.5163
  10   2.0000     -10.086589      -274.4700
  11   2.0000     -10.076663      -274.1999
  12   2.0000      -1.055308       -28.7164
  13   2.0000      -1.015542       -27.6343
  14   2.0000      -1.005573       -27.3630
  15   2.0000      -0.993664       -27.0390
  16   2.0000      -0.987174       -26.8624
  17   2.0000      -0.982454       -26.7339
  18   2.0000      -0.752445       -20.4751
  19   2.0000      -0.737764       -20.0756
  20   2.0000      -0.655525       -17.8378
  21   2.0000      -0.614185       -16.7128
  22   2.0000      -0.585097       -15.9213
  23   2.0000      -0.555093       -15.1049
  24   2.0000      -0.535075       -14.5601
  25   2.0000      -0.500445       -13.6178
  26   2.0000      -0.494244       -13.4491
  27   2.0000      -0.483802       -13.1649
  28   2.0000      -0.474364       -12.9081
  29   2.0000      -0.458369       -12.4729
  30   2.0000      -0.433830       -11.8051
  31   2.0000      -0.420033       -11.4297
  32   2.0000      -0.408735       -11.1222
  33   2.0000      -0.400739       -10.9047
  34   2.0000      -0.380460       -10.3528
  35   2.0000      -0.380187       -10.3454
  36   2.0000      -0.352649        -9.5961
  37   2.0000      -0.346626        -9.4322
  38   2.0000      -0.336006        -9.1432
  39   2.0000      -0.323114        -8.7924
  40   2.0000      -0.309617        -8.4251
  41   2.0000      -0.293930        -7.9982
  42   2.0000      -0.275088        -7.4855
  43   2.0000      -0.268278        -7.3002
  44   2.0000      -0.254729        -6.9315
  45   2.0000      -0.250296        -6.8109
  46   2.0000      -0.242309        -6.5936
  47   2.0000      -0.227945        -6.2027
  48   0.0000       0.042035         1.1438
  49   0.0000       0.060180         1.6376
  50   0.0000       0.078197         2.1279
  51   0.0000       0.088187         2.3997
  52   0.0000       0.098794         2.6883

MULLIKEN ATOMIC CHARGES
-----------------------
   0 C :   -0.242738
   1 C :   -0.060484
   2 H :    0.199442
   3 C :    0.009730
   4 H :    0.186339
   5 C :   -0.034808
   6 H :    0.185755
   7 C :    0.051843
   8 H :    0.186050
   9 C :   -0.058890
  10 H :    0.168890
  11 O :   -0.239692
  12 O :   -0.454300
  13 O :   -0.496143
  14 O :   -0.496711
  15 O :   -0.502931
  16 O :   -0.497034
  17 H :    0.159409
  18 H :    0.165981
  19 H :    0.359745
  20 H :    0.353322
  21 H :    0.352660
  22 H :    0.353295
  23 H :    0.351270
Sum of atomic charges:    0.0000000

LOEWDIN ATOMIC CHARGES
----------------------
   0 C :    0.051490
   1 C :    0.125348
   2 H :    0.200221
   3 C :    0.117424
   4 H :    0.192179
   5 C :    0.110130
   6 H :    0.193760
   7 C :    0.116575
   8 H :    0.193732
   9 C :    0.299237
  10 H :    0.190858
  11 O :   -0.694680
  12 O :   -0.520122
  13 O :   -0.589476
  14 O :   -0.595724
  15 O :   -0.605899
  16 O :   -0.633711
  17 H :    0.179834
  18 H :    0.185946
  19 H :    0.302771
  20 H :    0.296627
  21 H :    0.296240
  22 H :    0.297303
  23 H :    0.289938

  Mayer bond orders larger than 0.100000
B(  0-C ,  1-C ) :   0.9568 B(  0-C , 16-O ) :   0.9500 B(  0-C , 17-H ) :   0.9725
B(  0-C , 18-H ) :   0.9620 B(  1-C ,  2-H ) :   0.9543 B(  1-C ,  3-C ) :   0.8767
B(  1-C , 11-O ) :   0.7961 B(  3-C ,  4-H ) :   0.9569 B(  3-C ,  5-C ) :   0.8905
B(  3-C , 15-O ) :   0.8448 B(  5-C ,  6-H ) :   0.9694 B(  5-C ,  7-C ) :   0.8818
B(  5-C , 14-O ) :   0.9034 B(  7-C ,  8-H ) :   0.9579 B(  7-C ,  9-C ) :   0.8223
B(  7-C , 13-O ) :   0.8855 B(  9-C , 10-H ) :   0.9960 B(  9-C , 11-O ) :   0.9348
B(  9-C , 12-O ) :   1.0366 B( 12-O , 19-H ) :   0.8525 B( 13-O , 20-H ) :   0.8613
B( 14-O , 21-H ) :   0.8594 B( 15-O , 22-H ) :   0.8594 B( 16-O , 23-H ) :   0.8698

Dispersion correction           -0.007892992
FINAL SINGLE POINT ENERGY      -687.108823374099

DIPOLE MOMENT
-------------

Method             : SCF
Type of density    : Electron Density
Multiplicity       :   1
Irrep              :   0
Energy             :  -687.1202250543963146 Eh
Relativity type    :
Basis              : AO
                                X                 Y                 Z
Electronic contribution:      2.259986214      -0.743764482       0.127448188
Nuclear contribution   :     -2.209216835       0.490694023      -0.451475467
                        -----------------------------------------
Total Dipole Moment    :      0.050769380      -0.253070459      -0.324027280
                        -----------------------------------------
Magnitude (a.u.)       :      0.414265452
Magnitude (Debye)      :      1.052979098

Rotational constants in cm-1:             0.039799             0.025681             0.016369
Rotational constants in MHz :          1193.147617           769.900243           490.726610

                             ****ORCA TERMINATED NORMALLY****
TOTAL RUN TIME: 0 days 0 hours 0 minutes 56 seconds 323 msec
