                         Program Version 6.0.0  -   RELEASE  -
|  1> ! wb97x-v def2-tzvp def2/J RIJCOSX DEFGRID2 scfconv7 GCP(DFT/TZ) printgap
|  2> %output
|  3>     printlevel normal
|  4> end
|  5> * xyz 0 1
|  6> C 0.1724356241699755 -0.6441969021490448 0.5207223015829496
|  7> H 0.1978114588770086 -0.7269484655176911 1.6099280011429116
|  8> C 1.335324745943437 0.22005955175673433 0.018036765150014667
|  9> F 1.2908929440176484 1.4418672853122052 0.5725959942748209
| 10> F 1.3304743038182167 0.3526409051251599 -1.317696820481265
| 11> F 2.4988058512841995 -0.3617713816557629 0.37137399538790017
| 12> F 0.28577065381284084 -1.8767974049730562 -0.0477905849349202
| 13> Br -1.5386668427450432 0.16435083177675577 0.012591935641798389
| 14> *
| 15>
| 16>                          ****END OF INPUT****

CARTESIAN COORDINATES (ANGSTROEM)
---------------------------------
  C      0.172436   -0.644197    0.520722
  H      0.197811   -0.726948    1.609928
  C      1.335325    0.220060    0.018037
  F      1.290893    1.441867    0.572596
  F      1.330474    0.352641   -1.317697
  F      2.498806   -0.361771    0.371374
  F      0.285771   -1.876797   -0.047791
  Br    -1.538667    0.164351    0.012592

 Total Charge           Charge          ....    0
 Multiplicity           Mult            ....    1
 Number of Electrons    NEL             ....   84
 Basis Dimension        Dim             ....  240

ORBITAL ENERGIES
----------------

  NO   OCC          E(Eh)            E(eV)
   0   2.0000    -494.750397    -13462.8427
   1   2.0000     -66.919882     -1820.9826
   2   2.0000     -60.976718     -1659.2609
   3   2.0000     -60.975105     -1659.2170
   4   2.0000     -60.975061     -1659.2158
   5   2.0000     -27.624179      -751.6921
   6   2.0000     -27.621409      -751.6167
   7   2.0000     -27.620064      -751.5801
   8   2.0000     -27.610906      -751.3310
   9   2.0000     -12.329949      -335.5150
  10   2.0000     -12.231391      -332.8331
  11   2.0000     -10.671703      -290.3918
  12   2.0000      -8.451789      -229.9849
  13   2.0000      -8.444540      -229.7876
  14   2.0000      -8.444280      -229.7805
  15   2.0000      -4.437014      -120.7373
  16   2.0000      -4.434139      -120.6591
  17   2.0000      -4.433922      -120.6532
  18   2.0000      -4.426001      -120.4376
  19   2.0000      -4.425976      -120.4369
  20   2.0000      -2.086274       -56.7704
  21   2.0000      -2.038315       -55.4654
  22   2.0000      -2.035087       -55.3775
  23   2.0000      -2.031568       -55.2818
  24   2.0000      -1.432401       -38.9776
  25   2.0000      -1.374919       -37.4134
  26   2.0000      -1.310457       -35.6593
  27   2.0000      -1.283453       -34.9245
  28   2.0000      -1.280541       -34.8453
  29   2.0000      -1.232655       -33.5422
  30   2.0000      -1.186925       -32.2979
  31   2.0000      -1.186421       -32.2842
  32   2.0000      -1.180337       -32.1186
  33   2.0000      -1.174718       -31.9657
  34   2.0000      -1.173306       -31.9273
  35   2.0000      -1.171890       -31.8887
  36   2.0000      -1.168776       -31.8040
  37   2.0000      -1.119229       -30.4558
  38   2.0000      -0.968266       -26.3479
  39   2.0000      -0.888552       -24.1787
  40   2.0000      -0.761661       -20.7259
  41   2.0000      -0.755264       -20.5518
  42   0.0000      -0.365284        -9.9399
  43   0.0000      -0.319399        -8.6913
  44   0.0000      -0.294538        -8.0148
  45   0.0000      -0.228147        -6.2082
  46   0.0000      -0.168140        -4.5753

MULLIKEN ATOMIC CHARGES
-----------------------
   0 C :    0.081523
   1 H :    0.139364
   2 C :    0.414820
   3 F :   -0.144634
   4 F :   -0.140885
   5 F :   -0.147435
   6 F :   -0.158355
   7 Br:   -0.044399
Sum of atomic charges:   -0.0000000

LOEWDIN ATOMIC CHARGES
----------------------
   0 C :   -0.522003
   1 H :    0.138321
   2 C :   -0.701512
   3 F :    0.207412
   4 F :    0.210838
   5 F :    0.200353
   6 F :    0.161147
   7 Br:    0.305443

  Mayer bond orders larger than 0.100000
B(  0-C ,  1-H ) :   0.9448 B(  0-C ,  2-C ) :   0.9784 B(  0-C ,  6-F ) :   1.0845
B(  0-C ,  7-Br) :   1.0998 B(  2-C ,  3-F ) :   1.1621 B(  2-C ,  4-F ) :   1.1745
B(  2-C ,  5-F ) :   1.1551

FINAL SINGLE POINT ENERGY     -3050.135009055954

DIPOLE MOMENT
-------------

Method             : SCF
Type of density    : Electron Density
Multiplicity       :   1
Irrep              :   0
Energy             : -3050.1634719623543788 Eh
Relativity type    :
Basis              : AO
                                X                 Y                 Z
Electronic contribution:     -9.516134393       1.833646866      -1.296617094
Nuclear contribution   :      9.334861083      -1.871961069       1.856775797
                        -----------------------------------------
Total Dipole Moment    :     -0.181273310      -0.038314203       0.560158702
                        -----------------------------------------
Magnitude (a.u.)       :      0.590004884
Magnitude (Debye)      :      1.499673233

Rotational constants in cm-1:             0.100789             0.037953             0.032673
Rotational constants in MHz :          3021.569190          1137.808985           979.502311

                             ****ORCA TERMINATED NORMALLY****
TOTAL RUN TIME: 0 days 0 hours 1 minutes 24 seconds 897 msec
