                         Program Version 6.0.0  -   RELEASE  -
|  1> ! wb97x-v def2-tzvp def2/J RIJCOSX DEFGRID2 scfconv7 GCP(DFT/TZ) printgap
|  2> %output
|  3>     printlevel normal
|  4> end
|  5> %cpcm
|  6>     smd true
|  7>     smdsolvent "water"
|  8> end
|  9> * xyz 0 1
| 10> C 0.1724356241699755 -0.6441969021490448 0.5207223015829496
| 11> H 0.1978114588770086 -0.7269484655176911 1.6099280011429116
| 12> C 1.335324745943437 0.22005955175673433 0.018036765150014667
| 13> F 1.2908929440176484 1.4418672853122052 0.5725959942748209
| 14> F 1.3304743038182167 0.3526409051251599 -1.317696820481265
| 15> F 2.4988058512841995 -0.3617713816557629 0.37137399538790017
| 16> F 0.28577065381284084 -1.8767974049730562 -0.0477905849349202
| 17> Br -1.5386668427450432 0.16435083177675577 0.012591935641798389
| 18> *
| 19>
| 20>                          ****END OF INPUT****

CARTESIAN COORDINATES (ANGSTROEM)
---------------------------------
  C      0.172436   -0.644197    0.520722
  H      0.197811   -0.726948    1.609928
  C      1.335325    0.220060    0.018037
  F      1.290893    1.441867    0.572596
  F      1.330474    0.352641   -1.317697
  F      2.498806   -0.361771    0.371374
  F      0.285771   -1.876797   -0.047791
  Br    -1.538667    0.164351    0.012592

 Total Charge           Charge          ....    0
 Multiplicity           Mult            ....    1
 Number of Electrons    NEL             ....   84
 Basis Dimension        Dim             ....  240

ORBITAL ENERGIES
----------------

  NO   OCC          E(Eh)            E(eV)
   0   2.0000    -494.744456    -13462.6811
   1   2.0000     -66.913988     -1820.8222
   2   2.0000     -60.970801     -1659.0998
   3   2.0000     -60.969228     -1659.0570
   4   2.0000     -60.969184     -1659.0558
   5   2.0000     -27.620125      -751.5818
   6   2.0000     -27.619013      -751.5515
   7   2.0000     -27.617222      -751.5028
   8   2.0000     -27.605050      -751.1716
   9   2.0000     -12.325322      -335.3891
  10   2.0000     -12.219609      -332.5125
  11   2.0000     -10.665838      -290.2322
  12   2.0000      -8.445826      -229.8226
  13   2.0000      -8.438779      -229.6308
  14   2.0000      -8.438497      -229.6232
  15   2.0000      -4.431024      -120.5743
  16   2.0000      -4.428236      -120.4984
  17   2.0000      -4.428001      -120.4920
  18   2.0000      -4.420281      -120.2819
  19   2.0000      -4.420256      -120.2813
  20   2.0000      -2.083126       -56.6847
  21   2.0000      -2.035182       -55.3801
  22   2.0000      -2.032268       -55.3008
  23   2.0000      -2.025975       -55.1296
  24   2.0000      -1.427117       -38.8338
  25   2.0000      -1.369670       -37.2706
  26   2.0000      -1.304664       -35.5017
  27   2.0000      -1.281011       -34.8581
  28   2.0000      -1.277518       -34.7630
  29   2.0000      -1.228450       -33.4278
  30   2.0000      -1.184050       -32.2196
  31   2.0000      -1.183551       -32.2061
  32   2.0000      -1.174689       -31.9649
  33   2.0000      -1.170103       -31.8401
  34   2.0000      -1.169997       -31.8372
  35   2.0000      -1.169242       -31.8167
  36   2.0000      -1.166234       -31.7348
  37   2.0000      -1.111125       -30.2353
  38   2.0000      -0.956783       -26.0354
  39   2.0000      -0.879348       -23.9283
  40   2.0000      -0.756397       -20.5826
  41   2.0000      -0.749423       -20.3928
  42   0.0000      -0.357597        -9.7307
  43   0.0000      -0.311606        -8.4792
  44   0.0000      -0.290695        -7.9102
  45   0.0000      -0.221076        -6.0158
  46   0.0000      -0.160388        -4.3644

MULLIKEN ATOMIC CHARGES
-----------------------
   0 C :    0.075465
   1 H :    0.197997
   2 C :    0.425447
   3 F :   -0.151517
   4 F :   -0.152099
   5 F :   -0.154824
   6 F :   -0.175869
   7 Br:   -0.064599
Sum of atomic charges:    0.0000000

LOEWDIN ATOMIC CHARGES
----------------------
   0 C :   -0.510094
   1 H :    0.156837
   2 C :   -0.695999
   3 F :    0.204733
   4 F :    0.203037
   5 F :    0.197480
   6 F :    0.151868
   7 Br:    0.292138

  Mayer bond orders larger than 0.100000
B(  0-C ,  1-H ) :   0.9317 B(  0-C ,  2-C ) :   0.9811 B(  0-C ,  6-F ) :   1.0638
B(  0-C ,  7-Br) :   1.0816 B(  2-C ,  3-F ) :   1.1583 B(  2-C ,  4-F ) :   1.1611
B(  2-C ,  5-F ) :   1.1528

FINAL SINGLE POINT ENERGY     -3050.135189324797

DIPOLE MOMENT
-------------

Method             : SCF
Type of density    : Electron Density
Multiplicity       :   1
Irrep              :   0
Energy             : -3050.1636522311969202 Eh
Relativity type    :
Basis              : AO
                                X                 Y                 Z
Electronic contribution:     -9.481657264       1.799909473      -1.088639144
Nuclear contribution   :      9.334861083      -1.871961069       1.856775797
                        -----------------------------------------
Total Dipole Moment    :     -0.146796181      -0.072051596       0.768136652
                        -----------------------------------------
Magnitude (a.u.)       :      0.785349901
Magnitude (Debye)      :      1.996200808

Rotational constants in cm-1:             0.100789             0.037953             0.032673
Rotational constants in MHz :          3021.569190          1137.808985           979.502311

                             ****ORCA TERMINATED NORMALLY****
TOTAL RUN TIME: 0 days 0 hours 1 minutes 29 seconds 187 msec
