                         Program Version 6.0.0  -   RELEASE  -
|  1> ! pbe def2-sv(p) def2/J RI DEFGRID1 loosescf d4 GCP(DFT/SV(P)) printgap
|  2> %output
|  3>     printlevel normal
|  4> end
|  5> * xyz 0 1
|  6> C -1.8262218476 -1.3428079302 4.71467e-05
|  7> C -0.4960590249 -1.7049666295 0.0001459815
|  8> C 0.4924309916 -0.7315281716 0.000155034
|  9> C 0.1350698532 0.6093226997 3.71242e-05
| 10> C -1.1980598677 0.9816006789 5.00918e-05
| 11> C -2.1904448261 0.0044663743 3.86832e-05
| 12> O -3.5005267305 0.3090395629 -0.0001505382
| 13> Cl 1.3593333751 1.8379853427 1.7828e-05
| 14> Cl 2.1673506865 -1.1939647614 -0.0001003774
| 15> H -2.6027429267 -2.089245782 -9.38091e-05
| 16> H -0.2125759909 -2.7440744923 4.56191e-05
| 17> H -1.4496665583 2.0301455224 -0.0001258616
| 18> H -3.6431926686 1.268889565 -0.0001818091
| 19> *
| 20>
| 21>                          ****END OF INPUT****

CARTESIAN COORDINATES (ANGSTROEM)
---------------------------------
  C     -1.826222   -1.342808    0.000047
  C     -0.496059   -1.704967    0.000146
  C      0.492431   -0.731528    0.000155
  C      0.135070    0.609323    0.000037
  C     -1.198060    0.981601    0.000050
  C     -2.190445    0.004466    0.000039
  O     -3.500527    0.309040   -0.000151
  Cl     1.359333    1.837985    0.000018
  Cl     2.167351   -1.193965   -0.000100
  H     -2.602743   -2.089246   -0.000094
  H     -0.212576   -2.744074    0.000046
  H     -1.449667    2.030146   -0.000126
  H     -3.643193    1.268890   -0.000182

 Total Charge           Charge          ....    0
 Multiplicity           Mult            ....    1
 Number of Electrons    NEL             ....   82
 Basis Dimension        Dim             ....  142

ORBITAL ENERGIES
----------------

  NO   OCC          E(Eh)            E(eV)
   0   2.0000    -100.645964     -2738.7159
   1   2.0000    -100.640149     -2738.5577
   2   2.0000     -18.799866      -511.5704
   3   2.0000      -9.972382      -271.3623
   4   2.0000      -9.963605      -271.1235
   5   2.0000      -9.954432      -270.8739
   6   2.0000      -9.914215      -269.7795
   7   2.0000      -9.912614      -269.7359
   8   2.0000      -9.904498      -269.5151
   9   2.0000      -9.181659      -249.8457
  10   2.0000      -9.175780      -249.6857
  11   2.0000      -7.013252      -190.8403
  12   2.0000      -7.007404      -190.6812
  13   2.0000      -7.001664      -190.5250
  14   2.0000      -7.000844      -190.5026
  15   2.0000      -6.995679      -190.3621
  16   2.0000      -6.995052      -190.3450
  17   2.0000      -0.985109       -26.8062
  18   2.0000      -0.835302       -22.7297
  19   2.0000      -0.779847       -21.2207
  20   2.0000      -0.761906       -20.7325
  21   2.0000      -0.681127       -18.5344
  22   2.0000      -0.660520       -17.9737
  23   2.0000      -0.584052       -15.8929
  24   2.0000      -0.549341       -14.9483
  25   2.0000      -0.514456       -13.9991
  26   2.0000      -0.465243       -12.6599
  27   2.0000      -0.441958       -12.0263
  28   2.0000      -0.413637       -11.2556
  29   2.0000      -0.400414       -10.8958
  30   2.0000      -0.392196       -10.6722
  31   2.0000      -0.366026        -9.9601
  32   2.0000      -0.355005        -9.6602
  33   2.0000      -0.352353        -9.5880
  34   2.0000      -0.320895        -8.7320
  35   2.0000      -0.304516        -8.2863
  36   2.0000      -0.282024        -7.6743
  37   2.0000      -0.273532        -7.4432
  38   2.0000      -0.258706        -7.0398
  39   2.0000      -0.233342        -6.3495
  40   2.0000      -0.200598        -5.4585
  41   0.0000      -0.053698        -1.4612
  42   0.0000      -0.036351        -0.9892
  43   0.0000      -0.018623        -0.5068
  44   0.0000       0.012099         0.3292
  45   0.0000       0.050413         1.3718

MULLIKEN ATOMIC CHARGES
-----------------------
   0 C :   -0.117094
   1 C :   -0.105139
   2 C :    0.082293
   3 C :    0.073627
   4 C :   -0.216062
   5 C :    0.261003
   6 O :   -0.319991
   7 Cl:   -0.059001
   8 Cl:   -0.067771
   9 H :    0.056992
  10 H :    0.057418
  11 H :    0.030103
  12 H :    0.323622
Sum of atomic charges:   -0.0000000

LOEWDIN ATOMIC CHARGES
----------------------
   0 C :   -0.146540
   1 C :   -0.123375
   2 C :   -0.174011
   3 C :   -0.145061
   4 C :   -0.189666
   5 C :    0.021163
   6 O :   -0.218253
   7 Cl:    0.140070
   8 Cl:    0.129069
   9 H :    0.136901
  10 H :    0.136283
  11 H :    0.130177
  12 H :    0.303243

  Mayer bond orders larger than 0.100000
B(  0-C ,  1-C ) :   1.3560 B(  0-C ,  5-C ) :   1.3372 B(  0-C ,  9-H ) :   0.9664
B(  1-C ,  2-C ) :   1.3645 B(  1-C , 10-H ) :   0.9670 B(  2-C ,  3-C ) :   1.4276
B(  2-C ,  8-Cl) :   1.0228 B(  3-C ,  4-C ) :   1.3750 B(  3-C ,  7-Cl) :   1.0250
B(  4-C ,  5-C ) :   1.2645 B(  4-C , 11-H ) :   0.9605 B(  5-C ,  6-O ) :   1.2004
B(  6-O , 12-H ) :   0.8386

Dispersion correction           -0.017273477
FINAL SINGLE POINT ENERGY     -1225.363132952195

DIPOLE MOMENT
-------------

Method             : SCF
Type of density    : Electron Density
Multiplicity       :   1
Irrep              :   0
Energy             : -1225.3957739361649146 Eh
Relativity type    :
Basis              : AO
                                X                 Y                 Z
Electronic contribution:     11.311235400       2.667033744       0.000116365
Nuclear contribution   :    -12.204577023      -2.299263920      -0.000225289
                        -----------------------------------------
Total Dipole Moment    :     -0.893341622       0.367769825      -0.000108925
                        -----------------------------------------
Magnitude (a.u.)       :      0.966081730
Magnitude (Debye)      :      2.455584610

Rotational constants in cm-1:             0.062753             0.029498             0.020066
Rotational constants in MHz :          1881.286415           884.335615           601.560360

                             ****ORCA TERMINATED NORMALLY****
TOTAL RUN TIME: 0 days 0 hours 0 minutes 7 seconds 187 msec
