                         Program Version 6.0.0  -   RELEASE  -
|  1> ! pbe def2-sv(p) def2/J RI DEFGRID1 loosescf d4 GCP(DFT/SV(P)) printgap
|  2> %output
|  3>     printlevel normal
|  4> end
|  5> * xyz 0 1
|  6> C -3.2036340606 0.5626629245 -0.0088804593
|  7> O -2.297277911 -0.5194686044 -0.0009625331
|  8> C -0.9483693202 -0.2383536217 0.001444633
|  9> C -0.0978856201 -1.3425833568 0.0023355459
| 10> C 1.2692232552 -1.1770958075 0.0079238392
| 11> C 1.8359990583 0.100882434 0.010945852
| 12> C 0.9763743454 1.1977156118 0.012088888
| 13> C -0.3979673268 1.035702893 0.0062470528
| 14> N 3.2042033086 0.2689068955 -0.0610880149
| 15> H -3.0906124807 1.1818111205 0.8859019224
| 16> H -4.1925339883 0.1092228459 -0.0158794149
| 17> H -3.076828776 1.1800447953 -0.9029602701
| 18> H -0.5376233548 -2.3277869247 0.0013227555
| 19> H 1.9126758198 -2.0442411695 0.0077280875
| 20> H 1.3893539126 2.1957149449 0.0150782424
| 21> H -1.0247622636 1.9132091763 0.008196785
| 22> H 3.7558879713 -0.5181279759 0.2384636394
| 23> H 3.5509186136 1.1635975836 0.2437675317
| 24> *
| 25>
| 26>                          ****END OF INPUT****

CARTESIAN COORDINATES (ANGSTROEM)
---------------------------------
  C     -3.203634    0.562663   -0.008880
  O     -2.297278   -0.519469   -0.000963
  C     -0.948369   -0.238354    0.001445
  C     -0.097886   -1.342583    0.002336
  C      1.269223   -1.177096    0.007924
  C      1.835999    0.100882    0.010946
  C      0.976374    1.197716    0.012089
  C     -0.397967    1.035703    0.006247
  N      3.204203    0.268907   -0.061088
  H     -3.090612    1.181811    0.885902
  H     -4.192534    0.109223   -0.015879
  H     -3.076829    1.180045   -0.902960
  H     -0.537623   -2.327787    0.001323
  H      1.912676   -2.044241    0.007728
  H      1.389354    2.195715    0.015078
  H     -1.024762    1.913209    0.008197
  H      3.755888   -0.518128    0.238464
  H      3.550919    1.163598    0.243768

 Total Charge           Charge          ....    0
 Multiplicity           Mult            ....    1
 Number of Electrons    NEL             ....   66
 Basis Dimension        Dim             ....  144

ORBITAL ENERGIES
----------------

  NO   OCC          E(Eh)            E(eV)
   0   2.0000     -18.766807      -510.6708
   1   2.0000     -13.988802      -380.6547
   2   2.0000      -9.930452      -270.2213
   3   2.0000      -9.929243      -270.1884
   4   2.0000      -9.920545      -269.9517
   5   2.0000      -9.881120      -268.8789
   6   2.0000      -9.880038      -268.8495
   7   2.0000      -9.879580      -268.8370
   8   2.0000      -9.877069      -268.7687
   9   2.0000      -0.947741       -25.7893
  10   2.0000      -0.830057       -22.5870
  11   2.0000      -0.749711       -20.4007
  12   2.0000      -0.666914       -18.1477
  13   2.0000      -0.656880       -17.8746
  14   2.0000      -0.606781       -16.5113
  15   2.0000      -0.548859       -14.9352
  16   2.0000      -0.521402       -14.1881
  17   2.0000      -0.478030       -13.0079
  18   2.0000      -0.466507       -12.6943
  19   2.0000      -0.448065       -12.1925
  20   2.0000      -0.407683       -11.0936
  21   2.0000      -0.404802       -11.0152
  22   2.0000      -0.389103       -10.5880
  23   2.0000      -0.368717       -10.0333
  24   2.0000      -0.356342        -9.6966
  25   2.0000      -0.345740        -9.4081
  26   2.0000      -0.335939        -9.1414
  27   2.0000      -0.303109        -8.2480
  28   2.0000      -0.293710        -7.9923
  29   2.0000      -0.268424        -7.3042
  30   2.0000      -0.230216        -6.2645
  31   2.0000      -0.218633        -5.9493
  32   2.0000      -0.152170        -4.1408
  33   0.0000      -0.024549        -0.6680
  34   0.0000       0.005893         0.1604
  35   0.0000       0.036374         0.9898
  36   0.0000       0.051095         1.3904
  37   0.0000       0.067165         1.8277

MULLIKEN ATOMIC CHARGES
-----------------------
   0 C :   -0.110165
   1 O :   -0.283880
   2 C :    0.283676
   3 C :   -0.126666
   4 C :   -0.131648
   5 C :    0.173896
   6 C :   -0.137714
   7 C :   -0.205218
   8 N :   -0.341172
   9 H :    0.103183
  10 H :    0.120225
  11 H :    0.103961
  12 H :    0.039946
  13 H :    0.021760
  14 H :    0.018330
  15 H :    0.034202
  16 H :    0.218660
  17 H :    0.218624
Sum of atomic charges:   -0.0000000

LOEWDIN ATOMIC CHARGES
----------------------
   0 C :   -0.203432
   1 O :   -0.109138
   2 C :    0.008990
   3 C :   -0.134398
   4 C :   -0.153145
   5 C :   -0.024095
   6 C :   -0.157974
   7 C :   -0.167725
   8 N :   -0.323455
   9 H :    0.104777
  10 H :    0.119612
  11 H :    0.105256
  12 H :    0.128424
  13 H :    0.118759
  14 H :    0.117390
  15 H :    0.124644
  16 H :    0.222766
  17 H :    0.222745

  Mayer bond orders larger than 0.100000
B(  0-C ,  1-O ) :   1.0019 B(  0-C ,  9-H ) :   0.9404 B(  0-C , 10-H ) :   0.9598
B(  0-C , 11-H ) :   0.9404 B(  1-O ,  2-C ) :   1.1075 B(  2-C ,  3-C ) :   1.3466
B(  2-C ,  7-C ) :   1.2979 B(  3-C ,  4-C ) :   1.3828 B(  3-C , 12-H ) :   0.9617
B(  4-C ,  5-C ) :   1.3030 B(  4-C , 13-H ) :   0.9647 B(  5-C ,  6-C ) :   1.3387
B(  5-C ,  8-N ) :   1.2171 B(  6-C ,  7-C ) :   1.3412 B(  6-C , 14-H ) :   0.9614
B(  7-C , 15-H ) :   0.9614 B(  8-N , 16-H ) :   0.8845 B(  8-N , 17-H ) :   0.8849

Dispersion correction           -0.017580792
FINAL SINGLE POINT ENERGY      -401.248230855663

DIPOLE MOMENT
-------------

Method             : SCF
Type of density    : Electron Density
Multiplicity       :   1
Irrep              :   0
Energy             :  -401.3085008067345711 Eh
Relativity type    :
Basis              : AO
                                X                 Y                 Z
Electronic contribution:      1.678088546      -2.200746665      -0.109021828
Nuclear contribution   :     -1.248768630       2.670793004       0.451491147
                        -----------------------------------------
Total Dipole Moment    :      0.429319916       0.470046340       0.342469318
                        -----------------------------------------
Magnitude (a.u.)       :      0.722872316
Magnitude (Debye)      :      1.837395408

Rotational constants in cm-1:             0.163962             0.033170             0.027751
Rotational constants in MHz :          4915.446968           994.425763           831.969039

                             ****ORCA TERMINATED NORMALLY****
TOTAL RUN TIME: 0 days 0 hours 0 minutes 8 seconds 654 msec
