                         Program Version 6.0.0  -   RELEASE  -
|  1> ! pbe def2-sv(p) def2/J RI DEFGRID1 loosescf d4 GCP(DFT/SV(P)) printgap
|  2> %output
|  3>     printlevel normal
|  4> end
|  5> * xyz 0 1
|  6> C -2.5642048504 -0.8718259181 0.29360333
|  7> C -1.1347082529 -0.4266184282 0.6335259905
|  8> H -1.0282682967 -0.3403516932 1.7251771374
|  9> C -0.8223918791 0.9396522555 0.0106958633
| 10> H -1.0645364043 0.8935095566 -1.0638991832
| 11> C 0.6677226052 1.2903738123 0.1798040963
| 12> H 0.8769912102 1.4544718884 1.2436627473
| 13> C 1.5434055029 0.1376503639 -0.3165984301
| 14> H 1.4018515522 0.0054997775 -1.4016091522
| 15> C 1.0967130724 -1.1671295785 0.367707615
| 16> H 1.2716230279 -1.0694569846 1.4598263243
| 17> O -0.2660339607 -1.4281145108 0.1364065497
| 18> O 1.8360767856 -2.2002760792 -0.1725388116
| 19> O 2.8841257012 0.4224623542 -0.0215801343
| 20> O 0.9556269082 2.516730894 -0.4417826811
| 21> O -1.6294251078 1.8967633065 0.648560233
| 22> O -2.7398954304 -1.0776164604 -1.0828287349
| 23> H -3.2526627958 -0.0781471451 0.586057168
| 24> H -2.7932779034 -1.7854761263 0.8546012766
| 25> H 1.4835442702 -3.0532470786 0.1255190103
| 26> H 3.4298238115 -0.3367049971 -0.2780849272
| 27> H 1.032317288 2.39557727 -1.3994381031
| 28> H -1.2993216292 2.778005698 0.411075031
| 29> H -2.1139034851 -1.7598675973 -1.3680174958
| 30> *
| 31>
| 32>                          ****END OF INPUT****

CARTESIAN COORDINATES (ANGSTROEM)
---------------------------------
  C     -2.564205   -0.871826    0.293603
  C     -1.134708   -0.426618    0.633526
  H     -1.028268   -0.340352    1.725177
  C     -0.822392    0.939652    0.010696
  H     -1.064536    0.893510   -1.063899
  C      0.667723    1.290374    0.179804
  H      0.876991    1.454472    1.243663
  C      1.543406    0.137650   -0.316598
  H      1.401852    0.005500   -1.401609
  C      1.096713   -1.167130    0.367708
  H      1.271623   -1.069457    1.459826
  O     -0.266034   -1.428115    0.136407
  O      1.836077   -2.200276   -0.172539
  O      2.884126    0.422462   -0.021580
  O      0.955627    2.516731   -0.441783
  O     -1.629425    1.896763    0.648560
  O     -2.739895   -1.077616   -1.082829
  H     -3.252663   -0.078147    0.586057
  H     -2.793278   -1.785476    0.854601
  H      1.483544   -3.053247    0.125519
  H      3.429824   -0.336705   -0.278085
  H      1.032317    2.395577   -1.399438
  H     -1.299322    2.778006    0.411075
  H     -2.113903   -1.759868   -1.368017

 Total Charge           Charge          ....    0
 Multiplicity           Mult            ....    1
 Number of Electrons    NEL             ....   96
 Basis Dimension        Dim             ....  192

ORBITAL ENERGIES
----------------

  NO   OCC          E(Eh)            E(eV)
   0   2.0000     -18.783642      -511.1289
   1   2.0000     -18.777298      -510.9562
   2   2.0000     -18.759029      -510.4591
   3   2.0000     -18.754577      -510.3380
   4   2.0000     -18.749912      -510.2110
   5   2.0000     -18.747374      -510.1420
   6   2.0000      -9.996083      -272.0072
   7   2.0000      -9.947534      -270.6861
   8   2.0000      -9.946719      -270.6640
   9   2.0000      -9.944655      -270.6078
  10   2.0000      -9.939037      -270.4550
  11   2.0000      -9.929848      -270.2049
  12   2.0000      -0.996447       -27.1147
  13   2.0000      -0.948182       -25.8013
  14   2.0000      -0.941038       -25.6069
  15   2.0000      -0.926143       -25.2016
  16   2.0000      -0.918132       -24.9837
  17   2.0000      -0.916440       -24.9376
  18   2.0000      -0.705027       -19.1848
  19   2.0000      -0.696065       -18.9409
  20   2.0000      -0.619162       -16.8482
  21   2.0000      -0.587934       -15.9985
  22   2.0000      -0.564732       -15.3671
  23   2.0000      -0.537764       -14.6333
  24   2.0000      -0.514707       -14.0059
  25   2.0000      -0.493090       -13.4177
  26   2.0000      -0.472470       -12.8566
  27   2.0000      -0.456021       -12.4090
  28   2.0000      -0.441358       -12.0100
  29   2.0000      -0.440539       -11.9877
  30   2.0000      -0.427793       -11.6408
  31   2.0000      -0.414121       -11.2688
  32   2.0000      -0.384512       -10.4631
  33   2.0000      -0.373874       -10.1736
  34   2.0000      -0.363421        -9.8892
  35   2.0000      -0.352138        -9.5822
  36   2.0000      -0.328998        -8.9525
  37   2.0000      -0.326113        -8.8740
  38   2.0000      -0.307062        -8.3556
  39   2.0000      -0.294041        -8.0013
  40   2.0000      -0.281657        -7.6643
  41   2.0000      -0.275217        -7.4890
  42   2.0000      -0.262875        -7.1532
  43   2.0000      -0.244225        -6.6457
  44   2.0000      -0.241470        -6.5707
  45   2.0000      -0.220630        -6.0036
  46   2.0000      -0.214720        -5.8428
  47   2.0000      -0.210101        -5.7171
  48   0.0000       0.014557         0.3961
  49   0.0000       0.017317         0.4712
  50   0.0000       0.036676         0.9980
  51   0.0000       0.044962         1.2235
  52   0.0000       0.061238         1.6664

MULLIKEN ATOMIC CHARGES
-----------------------
   0 C :    0.096775
   1 C :   -0.012437
   2 H :    0.057166
   3 C :    0.063960
   4 H :    0.039021
   5 C :    0.078464
   6 H :    0.067020
   7 C :    0.038743
   8 H :    0.043488
   9 C :    0.168123
  10 H :    0.043630
  11 O :   -0.324122
  12 O :   -0.386439
  13 O :   -0.404729
  14 O :   -0.411132
  15 O :   -0.420103
  16 O :   -0.438480
  17 H :    0.100824
  18 H :    0.075552
  19 H :    0.312127
  20 H :    0.307248
  21 H :    0.301568
  22 H :    0.305882
  23 H :    0.297854
Sum of atomic charges:    0.0000000

LOEWDIN ATOMIC CHARGES
----------------------
   0 C :   -0.122054
   1 C :   -0.071515
   2 H :    0.107847
   3 C :   -0.077627
   4 H :    0.097682
   5 C :   -0.076906
   6 H :    0.120260
   7 C :   -0.089171
   8 H :    0.099497
   9 C :   -0.004998
  10 H :    0.084067
  11 O :   -0.157657
  12 O :   -0.299703
  13 O :   -0.313093
  14 O :   -0.306558
  15 O :   -0.319863
  16 O :   -0.330482
  17 H :    0.126244
  18 H :    0.098738
  19 H :    0.293825
  20 H :    0.288370
  21 H :    0.287307
  22 H :    0.285972
  23 H :    0.279818

  Mayer bond orders larger than 0.100000
B(  0-C ,  1-C ) :   1.0422 B(  0-C , 16-O ) :   1.0625 B(  0-C , 17-H ) :   0.9134
B(  0-C , 18-H ) :   0.9175 B(  1-C ,  2-H ) :   0.8708 B(  1-C ,  3-C ) :   1.0010
B(  1-C , 11-O ) :   0.9821 B(  3-C ,  4-H ) :   0.8582 B(  3-C ,  5-C ) :   1.0029
B(  3-C , 15-O ) :   1.0662 B(  5-C ,  6-H ) :   0.8664 B(  5-C ,  7-C ) :   1.0039
B(  5-C , 14-O ) :   1.0506 B(  7-C ,  8-H ) :   0.8603 B(  7-C ,  9-C ) :   0.9924
B(  7-C , 13-O ) :   1.0966 B(  9-C , 10-H ) :   0.8870 B(  9-C , 11-O ) :   1.0088
B(  9-C , 12-O ) :   1.1664 B( 12-O , 19-H ) :   0.8369 B( 13-O , 20-H ) :   0.8388
B( 14-O , 21-H ) :   0.8465 B( 15-O , 22-H ) :   0.8300 B( 16-O , 23-H ) :   0.8422

Dispersion correction           -0.023916503
FINAL SINGLE POINT ENERGY      -685.702412134253

DIPOLE MOMENT
-------------

Method             : SCF
Type of density    : Electron Density
Multiplicity       :   1
Irrep              :   0
Energy             :  -685.8324020350063392 Eh
Relativity type    :
Basis              : AO
                                X                 Y                 Z
Electronic contribution:      2.389723144      -0.068074447      -0.963711732
Nuclear contribution   :     -1.913294180      -0.838851133       0.825706905
                        -----------------------------------------
Total Dipole Moment    :      0.476428964      -0.906925580      -0.138004827
                        -----------------------------------------
Magnitude (a.u.)       :      1.033703970
Magnitude (Debye)      :      2.627466683

Rotational constants in cm-1:             0.038849             0.027278             0.017824
Rotational constants in MHz :          1164.660466           817.778350           534.353473

                             ****ORCA TERMINATED NORMALLY****
TOTAL RUN TIME: 0 days 0 hours 0 minutes 12 seconds 49 msec
