                         Program Version 6.0.0  -   RELEASE  -
|  1> ! pbe def2-sv(p) def2/J RI DEFGRID1 loosescf d4 GCP(DFT/SV(P)) printgap
|  2> %output
|  3>     printlevel normal
|  4> end
|  5> * xyz 0 1
|  6> C -2.7339412635 -0.2566751853 -0.00010179
|  7> C -2.3436377295 1.090924892 0.0001144717
|  8> C -1.0173841024 1.4232828403 0.0001644402
|  9> C -0.0270127362 0.4211883041 -1.412e-07
| 10> C -0.4160455513 -0.9425705376 -2.9529e-05
| 11> C -1.7930767477 -1.2485323762 -0.0001524439
| 12> C 0.5749569668 -1.9468070032 3.2098e-06
| 13> C 1.8984452395 -1.6093189664 8.14553e-05
| 14> C 2.2959816792 -0.2653048642 7.75897e-05
| 15> C 1.3594638086 0.7389308463 -1.59549e-05
| 16> O 1.6995781936 2.0551040286 -0.0001863801
| 17> H -3.7852298832 -0.5037066792 2.53735e-05
| 18> H -3.0981996448 1.8630962647 0.0004890583
| 19> H -0.7011166305 2.455311176 0.0004175517
| 20> H -2.0899751819 -2.2873763073 -0.0001550379
| 21> H 0.2682753806 -2.9819318313 6.19252e-05
| 22> H 2.6581622406 -2.3763843971 0.0003451807
| 23> H 3.3494259188 -0.0246519893 0.0002539401
| 24> H 2.6634644685 2.1557696785 -0.0001633384
| 25> *
| 26>
| 27>                          ****END OF INPUT****

CARTESIAN COORDINATES (ANGSTROEM)
---------------------------------
  C     -2.733941   -0.256675   -0.000102
  C     -2.343638    1.090925    0.000114
  C     -1.017384    1.423283    0.000164
  C     -0.027013    0.421188   -0.000000
  C     -0.416046   -0.942571   -0.000030
  C     -1.793077   -1.248532   -0.000152
  C      0.574957   -1.946807    0.000003
  C      1.898445   -1.609319    0.000081
  C      2.295982   -0.265305    0.000078
  C      1.359464    0.738931   -0.000016
  O      1.699578    2.055104   -0.000186
  H     -3.785230   -0.503707    0.000025
  H     -3.098200    1.863096    0.000489
  H     -0.701117    2.455311    0.000418
  H     -2.089975   -2.287376   -0.000155
  H      0.268275   -2.981932    0.000062
  H      2.658162   -2.376384    0.000345
  H      3.349426   -0.024652    0.000254
  H      2.663464    2.155770   -0.000163

 Total Charge           Charge          ....    0
 Multiplicity           Mult            ....    1
 Number of Electrons    NEL             ....   76
 Basis Dimension        Dim             ....  170

ORBITAL ENERGIES
----------------

  NO   OCC          E(Eh)            E(eV)
   0   2.0000     -18.787503      -511.2339
   1   2.0000      -9.955748      -270.9097
   2   2.0000      -9.901437      -269.4318
   3   2.0000      -9.899255      -269.3724
   4   2.0000      -9.894135      -269.2331
   5   2.0000      -9.891682      -269.1664
   6   2.0000      -9.890742      -269.1408
   7   2.0000      -9.890341      -269.1298
   8   2.0000      -9.888948      -269.0920
   9   2.0000      -9.888453      -269.0785
  10   2.0000      -9.885446      -268.9967
  11   2.0000      -0.969133       -26.3714
  12   2.0000      -0.790367       -21.5070
  13   2.0000      -0.741385       -20.1741
  14   2.0000      -0.690726       -18.7956
  15   2.0000      -0.667427       -18.1616
  16   2.0000      -0.640285       -17.4230
  17   2.0000      -0.572432       -15.5767
  18   2.0000      -0.555040       -15.1034
  19   2.0000      -0.540857       -14.7175
  20   2.0000      -0.489891       -13.3306
  21   2.0000      -0.463855       -12.6221
  22   2.0000      -0.449264       -12.2251
  23   2.0000      -0.427548       -11.6342
  24   2.0000      -0.401066       -10.9136
  25   2.0000      -0.379256       -10.3201
  26   2.0000      -0.375939       -10.2298
  27   2.0000      -0.374613       -10.1937
  28   2.0000      -0.356854        -9.7105
  29   2.0000      -0.340647        -9.2695
  30   2.0000      -0.325831        -8.8663
  31   2.0000      -0.323688        -8.8080
  32   2.0000      -0.296120        -8.0578
  33   2.0000      -0.288182        -7.8418
  34   2.0000      -0.287058        -7.8112
  35   2.0000      -0.237105        -6.4520
  36   2.0000      -0.224096        -6.0980
  37   2.0000      -0.181272        -4.9327
  38   0.0000      -0.060441        -1.6447
  39   0.0000      -0.037954        -1.0328
  40   0.0000       0.006567         0.1787
  41   0.0000       0.018329         0.4988
  42   0.0000       0.050528         1.3749

MULLIKEN ATOMIC CHARGES
-----------------------
   0 C :   -0.035933
   1 C :   -0.040403
   2 C :   -0.120506
   3 C :    0.061011
   4 C :    0.149788
   5 C :   -0.134770
   6 C :   -0.127979
   7 C :   -0.040547
   8 C :   -0.188254
   9 C :    0.191554
  10 O :   -0.329583
  11 H :    0.051077
  12 H :    0.051196
  13 H :    0.049271
  14 H :    0.037981
  15 H :    0.032656
  16 H :    0.050598
  17 H :    0.022053
  18 H :    0.320790
Sum of atomic charges:    0.0000000

LOEWDIN ATOMIC CHARGES
----------------------
   0 C :   -0.122760
   1 C :   -0.126954
   2 C :   -0.105122
   3 C :   -0.044533
   4 C :   -0.020237
   5 C :   -0.112425
   6 C :   -0.137596
   7 C :   -0.118299
   8 C :   -0.188036
   9 C :    0.035433
  10 O :   -0.226845
  11 H :    0.123447
  12 H :    0.123513
  13 H :    0.129265
  14 H :    0.123453
  15 H :    0.122364
  16 H :    0.124462
  17 H :    0.119791
  18 H :    0.301079

  Mayer bond orders larger than 0.100000
B(  0-C ,  1-C ) :   1.2605 B(  0-C ,  5-C ) :   1.4586 B(  0-C , 11-H ) :   0.9623
B(  1-C ,  2-C ) :   1.4354 B(  1-C , 12-H ) :   0.9639 B(  2-C ,  3-C ) :   1.2740
B(  2-C , 13-H ) :   0.9617 B(  3-C ,  4-C ) :   1.2782 B(  3-C ,  9-C ) :   1.2335
B(  4-C ,  5-C ) :   1.2454 B(  4-C ,  6-C ) :   1.2275 B(  5-C , 14-H ) :   0.9644
B(  6-C ,  7-C ) :   1.4486 B(  6-C , 15-H ) :   0.9686 B(  7-C ,  8-C ) :   1.2431
B(  7-C , 16-H ) :   0.9603 B(  8-C ,  9-C ) :   1.3917 B(  8-C , 17-H ) :   0.9573
B(  9-C , 10-O ) :   1.2293 B( 10-O , 18-H ) :   0.8385

Dispersion correction           -0.023520879
FINAL SINGLE POINT ENERGY      -460.133401744059

DIPOLE MOMENT
-------------

Method             : SCF
Type of density    : Electron Density
Multiplicity       :   1
Irrep              :   0
Energy             :  -460.1847854283042807 Eh
Relativity type    :
Basis              : AO
                                X                 Y                 Z
Electronic contribution:      1.237034546       1.649075377      -0.000912080
Nuclear contribution   :     -0.664566182      -1.564336486       0.001193083
                        -----------------------------------------
Total Dipole Moment    :      0.572468364       0.084738891       0.000281003
                        -----------------------------------------
Magnitude (a.u.)       :      0.578706131
Magnitude (Debye)      :      1.470954087

Rotational constants in cm-1:             0.065596             0.038093             0.024098
Rotational constants in MHz :          1966.516789          1141.989442           722.450353

                             ****ORCA TERMINATED NORMALLY****
TOTAL RUN TIME: 0 days 0 hours 0 minutes 9 seconds 721 msec
