                         Program Version 6.0.0  -   RELEASE  -
|  1> ! pbe def2-sv(p) def2/J RI DEFGRID1 loosescf d4 GCP(DFT/SV(P)) printgap
|  2> %output
|  3>     printlevel normal
|  4> end
|  5> * xyz 0 1
|  6> C -1.9702136189 -0.6432279684 -0.7849922313
|  7> C -1.169337358 -0.129567784 0.4220895794
|  8> H -1.8532279179 -0.0754813315 1.2787767388
|  9> C -0.5997132264 1.2828313732 0.2217095471
| 10> H -1.3208149936 1.8513053843 -0.3792656916
| 11> C 0.7566294759 1.2939408337 -0.5222576369
| 12> H 1.1895170653 2.2985132557 -0.4214177597
| 13> C 1.70964139 0.2919898547 0.1466165538
| 14> H 2.6233630503 0.2022188011 -0.4509966107
| 15> C 1.0490948406 -1.099966992 0.1997546894
| 16> H 1.6634107349 -1.7437761969 0.8446123609
| 17> O -0.1998598069 -1.0925519897 0.841729841
| 18> O 0.9867573668 -1.5967666218 -1.1075840242
| 19> O 2.1086347915 0.7092099682 1.4231220784
| 20> O 0.6069253542 1.0706842226 -1.9002559695
| 21> O -0.4597963067 1.8533298579 1.5084392544
| 22> O -2.7861652814 -1.7335812364 -0.4264950857
| 23> H -1.294444044 -0.9234310624 -1.6004435443
| 24> H -2.6470239623 0.1355503759 -1.1394718333
| 25> H 0.863374296 -2.5574676547 -1.1080523752
| 26> H 1.3125422746 0.9178735391 1.9455159559
| 27> H 0.6673751614 0.1181804668 -2.078102515
| 28> H -0.3562628803 2.8127831507 1.4371676843
| 29> H -2.2512606516 -2.3701399615 0.0696810819
| 30> *
| 31>
| 32>                          ****END OF INPUT****

CARTESIAN COORDINATES (ANGSTROEM)
---------------------------------
  C     -1.970214   -0.643228   -0.784992
  C     -1.169337   -0.129568    0.422090
  H     -1.853228   -0.075481    1.278777
  C     -0.599713    1.282831    0.221710
  H     -1.320815    1.851305   -0.379266
  C      0.756629    1.293941   -0.522258
  H      1.189517    2.298513   -0.421418
  C      1.709641    0.291990    0.146617
  H      2.623363    0.202219   -0.450997
  C      1.049095   -1.099967    0.199755
  H      1.663411   -1.743776    0.844612
  O     -0.199860   -1.092552    0.841730
  O      0.986757   -1.596767   -1.107584
  O      2.108635    0.709210    1.423122
  O      0.606925    1.070684   -1.900256
  O     -0.459796    1.853330    1.508439
  O     -2.786165   -1.733581   -0.426495
  H     -1.294444   -0.923431   -1.600444
  H     -2.647024    0.135550   -1.139472
  H      0.863374   -2.557468   -1.108052
  H      1.312542    0.917874    1.945516
  H      0.667375    0.118180   -2.078103
  H     -0.356263    2.812783    1.437168
  H     -2.251261   -2.370140    0.069681

 Total Charge           Charge          ....    0
 Multiplicity           Mult            ....    1
 Number of Electrons    NEL             ....   96
 Basis Dimension        Dim             ....  192

ORBITAL ENERGIES
----------------

  NO   OCC          E(Eh)            E(eV)
   0   2.0000     -18.791033      -511.3300
   1   2.0000     -18.777502      -510.9618
   2   2.0000     -18.776241      -510.9275
   3   2.0000     -18.748971      -510.1854
   4   2.0000     -18.744826      -510.0727
   5   2.0000     -18.743537      -510.0376
   6   2.0000      -9.995457      -271.9902
   7   2.0000      -9.952897      -270.8321
   8   2.0000      -9.948934      -270.7243
   9   2.0000      -9.944892      -270.6143
  10   2.0000      -9.944496      -270.6035
  11   2.0000      -9.931091      -270.2387
  12   2.0000      -0.995074       -27.0773
  13   2.0000      -0.954444       -25.9717
  14   2.0000      -0.933457       -25.4006
  15   2.0000      -0.928305       -25.2605
  16   2.0000      -0.921050       -25.0630
  17   2.0000      -0.914560       -24.8864
  18   2.0000      -0.709996       -19.3200
  19   2.0000      -0.690232       -18.7822
  20   2.0000      -0.625440       -17.0191
  21   2.0000      -0.592961       -16.1353
  22   2.0000      -0.583232       -15.8706
  23   2.0000      -0.533467       -14.5164
  24   2.0000      -0.512614       -13.9489
  25   2.0000      -0.492981       -13.4147
  26   2.0000      -0.479899       -13.0587
  27   2.0000      -0.457314       -12.4441
  28   2.0000      -0.442412       -12.0386
  29   2.0000      -0.441866       -12.0238
  30   2.0000      -0.421293       -11.4640
  31   2.0000      -0.397460       -10.8154
  32   2.0000      -0.393840       -10.7169
  33   2.0000      -0.374262       -10.1842
  34   2.0000      -0.368043       -10.0150
  35   2.0000      -0.363383        -9.8882
  36   2.0000      -0.334674        -9.1069
  37   2.0000      -0.332269        -9.0415
  38   2.0000      -0.311508        -8.4766
  39   2.0000      -0.297473        -8.0947
  40   2.0000      -0.277550        -7.5525
  41   2.0000      -0.274291        -7.4638
  42   2.0000      -0.267853        -7.2887
  43   2.0000      -0.254802        -6.9335
  44   2.0000      -0.248109        -6.7514
  45   2.0000      -0.224766        -6.1162
  46   2.0000      -0.210126        -5.7178
  47   2.0000      -0.203342        -5.5332
  48   0.0000      -0.000470        -0.0128
  49   0.0000       0.006802         0.1851
  50   0.0000       0.044872         1.2210
  51   0.0000       0.049280         1.3410
  52   0.0000       0.062342         1.6964

MULLIKEN ATOMIC CHARGES
-----------------------
   0 C :    0.059364
   1 C :    0.017079
   2 H :    0.087022
   3 C :    0.011717
   4 H :    0.079873
   5 C :    0.058073
   6 H :    0.062992
   7 C :    0.035308
   8 H :    0.086719
   9 C :    0.174853
  10 H :    0.078125
  11 O :   -0.324742
  12 O :   -0.409960
  13 O :   -0.429160
  14 O :   -0.425192
  15 O :   -0.418403
  16 O :   -0.437538
  17 H :    0.068735
  18 H :    0.085373
  19 H :    0.315899
  20 H :    0.300924
  21 H :    0.319201
  22 H :    0.312053
  23 H :    0.291684
Sum of atomic charges:    0.0000000

LOEWDIN ATOMIC CHARGES
----------------------
   0 C :   -0.138288
   1 C :   -0.068028
   2 H :    0.126222
   3 C :   -0.077335
   4 H :    0.112942
   5 C :   -0.076492
   6 H :    0.108508
   7 C :   -0.082385
   8 H :    0.122158
   9 C :   -0.012105
  10 H :    0.106354
  11 O :   -0.149401
  12 O :   -0.308923
  13 O :   -0.317110
  14 O :   -0.319884
  15 O :   -0.309354
  16 O :   -0.340367
  17 H :    0.095218
  18 H :    0.116296
  19 H :    0.294954
  20 H :    0.271543
  21 H :    0.275197
  22 H :    0.293587
  23 H :    0.276692

  Mayer bond orders larger than 0.100000
B(  0-C ,  1-C ) :   1.0651 B(  0-C , 16-O ) :   1.0585 B(  0-C , 17-H ) :   0.8938
B(  0-C , 18-H ) :   0.9138 B(  1-C ,  2-H ) :   0.8874 B(  1-C ,  3-C ) :   0.9956
B(  1-C , 11-O ) :   0.9696 B(  3-C ,  4-H ) :   0.8948 B(  3-C ,  5-C ) :   0.9466
B(  3-C , 15-O ) :   1.0179 B(  5-C ,  6-H ) :   0.9015 B(  5-C ,  7-C ) :   0.9960
B(  5-C , 14-O ) :   1.0898 B(  7-C ,  8-H ) :   0.8927 B(  7-C ,  9-C ) :   0.9864
B(  7-C , 13-O ) :   1.0684 B(  9-C , 10-H ) :   0.9045 B(  9-C , 11-O ) :   1.0643
B(  9-C , 12-O ) :   1.0693 B( 12-O , 19-H ) :   0.8310 B( 13-O , 20-H ) :   0.8082
B( 14-O , 21-H ) :   0.8026 B( 15-O , 20-H ) :   0.1009 B( 15-O , 22-H ) :   0.8398
B( 16-O , 23-H ) :   0.8455

Dispersion correction           -0.025864352
FINAL SINGLE POINT ENERGY      -685.698276865714

DIPOLE MOMENT
-------------

Method             : SCF
Type of density    : Electron Density
Multiplicity       :   1
Irrep              :   0
Energy             :  -685.8311022646805668 Eh
Relativity type    :
Basis              : AO
                                X                 Y                 Z
Electronic contribution:      1.423600472      -0.828870700       1.547227131
Nuclear contribution   :     -1.312876744       0.613243458      -1.497923791
                        -----------------------------------------
Total Dipole Moment    :      0.110723728      -0.215627241       0.049303340
                        -----------------------------------------
Magnitude (a.u.)       :      0.247357374
Magnitude (Debye)      :      0.628732478

Rotational constants in cm-1:             0.041298             0.027705             0.024430
Rotational constants in MHz :          1238.074557           830.570932           732.404940

                             ****ORCA TERMINATED NORMALLY****
TOTAL RUN TIME: 0 days 0 hours 0 minutes 12 seconds 622 msec
