                         Program Version 6.0.0  -   RELEASE  -
|  1> ! pbe def2-sv(p) def2/J RI DEFGRID1 loosescf d4 GCP(DFT/SV(P)) printgap
|  2> %output
|  3>     printlevel normal
|  4> end
|  5> * xyz 0 1
|  6> C -2.0677763949 -1.3568510658 -0.1624244466
|  7> C -1.0302062827 -0.500618874 0.5841445023
|  8> H -1.4868637465 -0.1638661014 1.5235571992
|  9> C -0.6403130124 0.7350753254 -0.2507400874
| 10> H -0.5353333172 0.4549802604 -1.3067698521
| 11> C 0.7191925793 1.2293643734 0.2497981299
| 12> H 0.7035464929 1.2996947511 1.3498427387
| 13> C 1.7655603992 0.1769679262 -0.1403736819
| 14> H 1.9431047948 0.2580734052 -1.2218667926
| 15> C 1.2167556214 -1.2469583139 0.1276878834
| 16> H 1.9694482994 -1.8153703459 0.694097761
| 17> O 0.1039633163 -1.2631587488 0.9852729347
| 18> O 0.9513935408 -1.8363620806 -1.106838536
| 19> O 2.9325102478 0.4551139578 0.5901727436
| 20> O 1.000700102 2.4810225118 -0.317134547
| 21> O -1.6555347048 1.7029776943 -0.2140513856
| 22> O -3.3228137523 -0.7261463917 -0.2083677283
| 23> H -2.2155529822 -2.2959869089 0.3761402805
| 24> H -1.7038483512 -1.5748867087 -1.1758534107
| 25> H 0.7578046334 -2.7798089098 -0.9949894988
| 26> H 3.6787185938 -0.0534543463 0.2423567263
| 27> H 1.8907912607 2.7513805746 -0.0476866232
| 28> H -1.5207505991 2.3018906694 0.5335455387
| 29> H -3.2048909786 0.1808795585 -0.5345477754
| 30> *
| 31>
| 32>                          ****END OF INPUT****

CARTESIAN COORDINATES (ANGSTROEM)
---------------------------------
  C     -2.067776   -1.356851   -0.162424
  C     -1.030206   -0.500619    0.584145
  H     -1.486864   -0.163866    1.523557
  C     -0.640313    0.735075   -0.250740
  H     -0.535333    0.454980   -1.306770
  C      0.719193    1.229364    0.249798
  H      0.703546    1.299695    1.349843
  C      1.765560    0.176968   -0.140374
  H      1.943105    0.258073   -1.221867
  C      1.216756   -1.246958    0.127688
  H      1.969448   -1.815370    0.694098
  O      0.103963   -1.263159    0.985273
  O      0.951394   -1.836362   -1.106839
  O      2.932510    0.455114    0.590173
  O      1.000700    2.481023   -0.317135
  O     -1.655535    1.702978   -0.214051
  O     -3.322814   -0.726146   -0.208368
  H     -2.215553   -2.295987    0.376140
  H     -1.703848   -1.574887   -1.175853
  H      0.757805   -2.779809   -0.994989
  H      3.678719   -0.053454    0.242357
  H      1.890791    2.751381   -0.047687
  H     -1.520751    2.301891    0.533546
  H     -3.204891    0.180880   -0.534548

 Total Charge           Charge          ....    0
 Multiplicity           Mult            ....    1
 Number of Electrons    NEL             ....   96
 Basis Dimension        Dim             ....  192

ORBITAL ENERGIES
----------------

  NO   OCC          E(Eh)            E(eV)
   0   2.0000     -18.772638      -510.8295
   1   2.0000     -18.770411      -510.7688
   2   2.0000     -18.769939      -510.7560
   3   2.0000     -18.762374      -510.5502
   4   2.0000     -18.755240      -510.3560
   5   2.0000     -18.730916      -509.6941
   6   2.0000      -9.991491      -271.8823
   7   2.0000      -9.948836      -270.7216
   8   2.0000      -9.948752      -270.7193
   9   2.0000      -9.947156      -270.6759
  10   2.0000      -9.938825      -270.4492
  11   2.0000      -9.920098      -269.9396
  12   2.0000      -0.985694       -26.8221
  13   2.0000      -0.952420       -25.9167
  14   2.0000      -0.943451       -25.6726
  15   2.0000      -0.923933       -25.1415
  16   2.0000      -0.918268       -24.9873
  17   2.0000      -0.905952       -24.6522
  18   2.0000      -0.710487       -19.3333
  19   2.0000      -0.692827       -18.8528
  20   2.0000      -0.614139       -16.7116
  21   2.0000      -0.593010       -16.1366
  22   2.0000      -0.565381       -15.3848
  23   2.0000      -0.535497       -14.5716
  24   2.0000      -0.514012       -13.9870
  25   2.0000      -0.488462       -13.2917
  26   2.0000      -0.474091       -12.9007
  27   2.0000      -0.464494       -12.6395
  28   2.0000      -0.437827       -11.9139
  29   2.0000      -0.434536       -11.8243
  30   2.0000      -0.414600       -11.2818
  31   2.0000      -0.403968       -10.9925
  32   2.0000      -0.387440       -10.5428
  33   2.0000      -0.369628       -10.0581
  34   2.0000      -0.366084        -9.9616
  35   2.0000      -0.348816        -9.4918
  36   2.0000      -0.332138        -9.0379
  37   2.0000      -0.315764        -8.5924
  38   2.0000      -0.310679        -8.4540
  39   2.0000      -0.294884        -8.0242
  40   2.0000      -0.285136        -7.7590
  41   2.0000      -0.273256        -7.4357
  42   2.0000      -0.257036        -6.9943
  43   2.0000      -0.243968        -6.6387
  44   2.0000      -0.237393        -6.4598
  45   2.0000      -0.226596        -6.1660
  46   2.0000      -0.217484        -5.9180
  47   2.0000      -0.195405        -5.3172
  48   0.0000       0.009840         0.2678
  49   0.0000       0.017089         0.4650
  50   0.0000       0.025310         0.6887
  51   0.0000       0.045846         1.2475
  52   0.0000       0.056591         1.5399

MULLIKEN ATOMIC CHARGES
-----------------------
   0 C :    0.071180
   1 C :    0.052163
   2 H :    0.062713
   3 C :    0.002558
   4 H :    0.081192
   5 C :    0.048372
   6 H :    0.058646
   7 C :    0.031985
   8 H :    0.074989
   9 C :    0.176922
  10 H :    0.049241
  11 O :   -0.314392
  12 O :   -0.395084
  13 O :   -0.415310
  14 O :   -0.407452
  15 O :   -0.410510
  16 O :   -0.448174
  17 H :    0.079993
  18 H :    0.064547
  19 H :    0.308209
  20 H :    0.308977
  21 H :    0.306295
  22 H :    0.310830
  23 H :    0.302110
Sum of atomic charges:    0.0000000

LOEWDIN ATOMIC CHARGES
----------------------
   0 C :   -0.131882
   1 C :   -0.076491
   2 H :    0.113360
   3 C :   -0.073614
   4 H :    0.120034
   5 C :   -0.074049
   6 H :    0.105366
   7 C :   -0.087874
   8 H :    0.112536
   9 C :   -0.010300
  10 H :    0.095436
  11 O :   -0.144784
  12 O :   -0.308704
  13 O :   -0.317220
  14 O :   -0.317090
  15 O :   -0.299940
  16 O :   -0.341914
  17 H :    0.109060
  18 H :    0.092504
  19 H :    0.288251
  20 H :    0.291036
  21 H :    0.289124
  22 H :    0.292449
  23 H :    0.274706

  Mayer bond orders larger than 0.100000
B(  0-C ,  1-C ) :   1.0599 B(  0-C , 16-O ) :   1.0820 B(  0-C , 17-H ) :   0.9207
B(  0-C , 18-H ) :   0.9053 B(  1-C ,  2-H ) :   0.8809 B(  1-C ,  3-C ) :   0.9555
B(  1-C , 11-O ) :   0.9529 B(  3-C ,  4-H ) :   0.8810 B(  3-C ,  5-C ) :   1.0251
B(  3-C , 15-O ) :   1.0410 B(  5-C ,  6-H ) :   0.8613 B(  5-C ,  7-C ) :   1.0500
B(  5-C , 14-O ) :   1.1104 B(  7-C ,  8-H ) :   0.8798 B(  7-C ,  9-C ) :   0.9731
B(  7-C , 13-O ) :   1.0865 B(  9-C , 10-H ) :   0.8941 B(  9-C , 11-O ) :   1.0948
B(  9-C , 12-O ) :   1.1044 B( 12-O , 19-H ) :   0.8342 B( 13-O , 20-H ) :   0.8457
B( 14-O , 21-H ) :   0.8407 B( 15-O , 22-H ) :   0.8388 B( 16-O , 23-H ) :   0.8251

Dispersion correction           -0.024565483
FINAL SINGLE POINT ENERGY      -685.691346369828

DIPOLE MOMENT
-------------

Method             : SCF
Type of density    : Electron Density
Multiplicity       :   1
Irrep              :   0
Energy             :  -685.8217904261210833 Eh
Relativity type    :
Basis              : AO
                                X                 Y                 Z
Electronic contribution:      1.268598810       1.113195927       0.674130108
Nuclear contribution   :      0.259249674      -1.335606275      -0.531428509
                        -----------------------------------------
Total Dipole Moment    :      1.527848484      -0.222410348       0.142701598
                        -----------------------------------------
Magnitude (a.u.)       :      1.550532521
Magnitude (Debye)      :      3.941140460

Rotational constants in cm-1:             0.043853             0.026180             0.018558
Rotational constants in MHz :          1314.673747           784.853112           556.354579

                             ****ORCA TERMINATED NORMALLY****
TOTAL RUN TIME: 0 days 0 hours 0 minutes 12 seconds 253 msec
