                         Program Version 6.0.0  -   RELEASE  -
|  1> ! pbe def2-sv(p) def2/J RI DEFGRID1 loosescf d4 GCP(DFT/SV(P)) printgap
|  2> %output
|  3>     printlevel normal
|  4> end
|  5> * xyz 0 1
|  6> C -1.6880707472 -1.3716390297 -0.5559710505
|  7> C -1.1453632632 -0.4843713699 0.573956792
|  8> H -1.9045281854 -0.4181635086 1.3603316516
|  9> C -0.8652233595 0.9560341327 0.1003305989
| 10> H -1.1741819941 1.0534575146 -0.9516396928
| 11> C 0.6367447386 1.2696072746 0.2162805191
| 12> H 0.8813328246 1.3730244953 1.2810183252
| 13> C 1.4390521145 0.1066161737 -0.3797170393
| 14> H 1.1098322029 -0.0904713681 -1.4066681262
| 15> C 1.1657616359 -1.1601207867 0.4610084946
| 16> H 1.9528600374 -1.2594311806 1.2238554711
| 17> O -0.022122631 -1.0706198357 1.2157383795
| 18> O 1.1695137489 -2.2575456602 -0.3961095229
| 19> O 2.8072224806 0.3859538689 -0.484740452
| 20> O 0.9557593101 2.5075501634 -0.364174293
| 21> O -1.6235188 1.8349868355 0.8956704071
| 22> O -2.861115604 -0.7787608026 -1.0609009376
| 23> H -1.8940618826 -2.3626564199 -0.1349973842
| 24> H -0.930424557 -1.4721679751 -1.3435961367
| 25> H 1.1807860173 -3.0839766063 0.1105175847
| 26> H 3.1416629644 0.7427185825 0.3515637822
| 27> H 0.9625544374 2.4289141027 -1.329251381
| 28> H -1.3722828892 2.7462638054 0.6787027576
| 29> H -3.264538136 -1.3746007341 -1.7081656093
| 30> *
| 31>
| 32>                          ****END OF INPUT****

CARTESIAN COORDINATES (ANGSTROEM)
---------------------------------
  C     -1.688071   -1.371639   -0.555971
  C     -1.145363   -0.484371    0.573957
  H     -1.904528   -0.418164    1.360332
  C     -0.865223    0.956034    0.100331
  H     -1.174182    1.053458   -0.951640
  C      0.636745    1.269607    0.216281
  H      0.881333    1.373024    1.281018
  C      1.439052    0.106616   -0.379717
  H      1.109832   -0.090471   -1.406668
  C      1.165762   -1.160121    0.461008
  H      1.952860   -1.259431    1.223855
  O     -0.022123   -1.070620    1.215738
  O      1.169514   -2.257546   -0.396110
  O      2.807222    0.385954   -0.484740
  O      0.955759    2.507550   -0.364174
  O     -1.623519    1.834987    0.895670
  O     -2.861116   -0.778761   -1.060901
  H     -1.894062   -2.362656   -0.134997
  H     -0.930425   -1.472168   -1.343596
  H      1.180786   -3.083977    0.110518
  H      3.141663    0.742719    0.351564
  H      0.962554    2.428914   -1.329251
  H     -1.372283    2.746264    0.678703
  H     -3.264538   -1.374601   -1.708166

 Total Charge           Charge          ....    0
 Multiplicity           Mult            ....    1
 Number of Electrons    NEL             ....   96
 Basis Dimension        Dim             ....  192

ORBITAL ENERGIES
----------------

  NO   OCC          E(Eh)            E(eV)
   0   2.0000     -18.767568      -510.6915
   1   2.0000     -18.764937      -510.6199
   2   2.0000     -18.758243      -510.4377
   3   2.0000     -18.753885      -510.3192
   4   2.0000     -18.750490      -510.2268
   5   2.0000     -18.740398      -509.9522
   6   2.0000      -9.987436      -271.7720
   7   2.0000      -9.945151      -270.6213
   8   2.0000      -9.940986      -270.5080
   9   2.0000      -9.939160      -270.4583
  10   2.0000      -9.934725      -270.3376
  11   2.0000      -9.928610      -270.1712
  12   2.0000      -0.979884       -26.6640
  13   2.0000      -0.946438       -25.7539
  14   2.0000      -0.930046       -25.3078
  15   2.0000      -0.924018       -25.1438
  16   2.0000      -0.914772       -24.8922
  17   2.0000      -0.909612       -24.7518
  18   2.0000      -0.700834       -19.0707
  19   2.0000      -0.690706       -18.7951
  20   2.0000      -0.620484       -16.8842
  21   2.0000      -0.578192       -15.7334
  22   2.0000      -0.573893       -15.6164
  23   2.0000      -0.524775       -14.2798
  24   2.0000      -0.503752       -13.7078
  25   2.0000      -0.491667       -13.3789
  26   2.0000      -0.465494       -12.6667
  27   2.0000      -0.452562       -12.3149
  28   2.0000      -0.441778       -12.0214
  29   2.0000      -0.431642       -11.7456
  30   2.0000      -0.415843       -11.3157
  31   2.0000      -0.402152       -10.9431
  32   2.0000      -0.392195       -10.6722
  33   2.0000      -0.366042        -9.9605
  34   2.0000      -0.359275        -9.7764
  35   2.0000      -0.344980        -9.3874
  36   2.0000      -0.328305        -8.9336
  37   2.0000      -0.309650        -8.4260
  38   2.0000      -0.302703        -8.2370
  39   2.0000      -0.289085        -7.8664
  40   2.0000      -0.278987        -7.5916
  41   2.0000      -0.266197        -7.2436
  42   2.0000      -0.257511        -7.0072
  43   2.0000      -0.240553        -6.5458
  44   2.0000      -0.229945        -6.2571
  45   2.0000      -0.219491        -5.9727
  46   2.0000      -0.214710        -5.8426
  47   2.0000      -0.200954        -5.4682
  48   0.0000       0.020563         0.5595
  49   0.0000       0.022856         0.6220
  50   0.0000       0.026047         0.7088
  51   0.0000       0.032975         0.8973
  52   0.0000       0.053140         1.4460

MULLIKEN ATOMIC CHARGES
-----------------------
   0 C :   -0.008131
   1 C :    0.050381
   2 H :    0.088945
   3 C :    0.074877
   4 H :    0.051864
   5 C :    0.038815
   6 H :    0.057330
   7 C :   -0.007175
   8 H :    0.065834
   9 C :    0.217866
  10 H :    0.049059
  11 O :   -0.309689
  12 O :   -0.385137
  13 O :   -0.403534
  14 O :   -0.411827
  15 O :   -0.412646
  16 O :   -0.428932
  17 H :    0.070031
  18 H :    0.093348
  19 H :    0.302615
  20 H :    0.302063
  21 H :    0.300991
  22 H :    0.298721
  23 H :    0.304331
Sum of atomic charges:   -0.0000000

LOEWDIN ATOMIC CHARGES
----------------------
   0 C :   -0.145092
   1 C :   -0.052724
   2 H :    0.129037
   3 C :   -0.072272
   4 H :    0.100283
   5 C :   -0.091124
   6 H :    0.115118
   7 C :   -0.092025
   8 H :    0.115698
   9 C :   -0.007370
  10 H :    0.096312
  11 O :   -0.144921
  12 O :   -0.301774
  13 O :   -0.305113
  14 O :   -0.311961
  15 O :   -0.318722
  16 O :   -0.339628
  17 H :    0.097995
  18 H :    0.097439
  19 H :    0.286682
  20 H :    0.286070
  21 H :    0.286840
  22 H :    0.282191
  23 H :    0.289062

  Mayer bond orders larger than 0.100000
B(  0-C ,  1-C ) :   1.0563 B(  0-C , 16-O ) :   1.0713 B(  0-C , 17-H ) :   0.9112
B(  0-C , 18-H ) :   0.9028 B(  1-C ,  2-H ) :   0.8812 B(  1-C ,  3-C ) :   0.9833
B(  1-C , 11-O ) :   1.0262 B(  3-C ,  4-H ) :   0.8798 B(  3-C ,  5-C ) :   1.0146
B(  3-C , 15-O ) :   1.0743 B(  5-C ,  6-H ) :   0.8512 B(  5-C ,  7-C ) :   1.0004
B(  5-C , 14-O ) :   1.0614 B(  7-C ,  8-H ) :   0.8696 B(  7-C ,  9-C ) :   0.9655
B(  7-C , 13-O ) :   1.0638 B(  9-C , 10-H ) :   0.8885 B(  9-C , 11-O ) :   1.0531
B(  9-C , 12-O ) :   1.1335 B( 12-O , 19-H ) :   0.8401 B( 13-O , 20-H ) :   0.8465
B( 14-O , 21-H ) :   0.8469 B( 15-O , 22-H ) :   0.8393 B( 16-O , 23-H ) :   0.8500

Dispersion correction           -0.024527648
FINAL SINGLE POINT ENERGY      -685.687017593757

DIPOLE MOMENT
-------------

Method             : SCF
Type of density    : Electron Density
Multiplicity       :   1
Irrep              :   0
Energy             :  -685.8163315191891343 Eh
Relativity type    :
Basis              : AO
                                X                 Y                 Z
Electronic contribution:      1.400405491       0.957639703       1.370668777
Nuclear contribution   :     -1.223623756      -1.601713701      -1.755691873
                        -----------------------------------------
Total Dipole Moment    :      0.176781736      -0.644073998      -0.385023096
                        -----------------------------------------
Magnitude (a.u.)       :      0.770925341
Magnitude (Debye)      :      1.959536491

Rotational constants in cm-1:             0.036612             0.029211             0.019618
Rotational constants in MHz :          1097.610821           875.737975           588.131006

                             ****ORCA TERMINATED NORMALLY****
TOTAL RUN TIME: 0 days 0 hours 0 minutes 11 seconds 782 msec
