                         Program Version 6.0.0  -   RELEASE  -
|  1> ! pbe def2-sv(p) def2/J RI DEFGRID1 loosescf d4 GCP(DFT/SV(P)) printgap
|  2> %output
|  3>     printlevel normal
|  4> end
|  5> * xyz 0 1
|  6> C -2.2984877376 -0.9001775532 0.7556632905
|  7> C -0.8532023675 -0.3838548159 0.7534420326
|  8> H -0.5671408021 -0.1116936569 1.7786515544
|  9> C -0.6644288616 0.8365795235 -0.1585192768
| 10> H -0.9046701712 0.5266979785 -1.1866679633
| 11> C 0.8063376758 1.2979950321 -0.1070626729
| 12> H 0.866974539 2.1200001568 0.6179876678
| 13> C 1.7510689829 0.1832589971 0.3772867756
| 14> H 2.7358608923 0.3812955531 -0.0697321662
| 15> C 1.2499729446 -1.1623648782 -0.1673736046
| 16> H 1.8750123667 -1.9964863097 0.1805625107
| 17> O -0.0469623768 -1.4701363677 0.2964439715
| 18> O 1.3184816471 -1.1926885095 -1.5597786804
| 19> O 1.8119064685 0.2160504675 1.778202008
| 20> O 1.259634013 1.6954968225 -1.3812631125
| 21> O -1.4586631927 1.9330153269 0.2228790024
| 22> O -2.7906275303 -1.1297996604 -0.540619046
| 23> H -2.9532115517 -0.1584627546 1.2148245196
| 24> H -2.3265492881 -1.8183099138 1.3530431117
| 25> H 1.2046681535 -0.2986175004 -1.9291759982
| 26> H 2.513152558 -0.3717225576 2.0946721513
| 27> H 0.8093379638 2.5103850065 -1.6468172239
| 28> H -2.3857692638 1.7470954452 0.0184325617
| 29> H -2.2520087906 -1.8225711379 -0.9492087504
| 30> *
| 31>
| 32>                          ****END OF INPUT****

CARTESIAN COORDINATES (ANGSTROEM)
---------------------------------
  C     -2.298488   -0.900178    0.755663
  C     -0.853202   -0.383855    0.753442
  H     -0.567141   -0.111694    1.778652
  C     -0.664429    0.836580   -0.158519
  H     -0.904670    0.526698   -1.186668
  C      0.806338    1.297995   -0.107063
  H      0.866975    2.120000    0.617988
  C      1.751069    0.183259    0.377287
  H      2.735861    0.381296   -0.069732
  C      1.249973   -1.162365   -0.167374
  H      1.875012   -1.996486    0.180563
  O     -0.046962   -1.470136    0.296444
  O      1.318482   -1.192689   -1.559779
  O      1.811906    0.216050    1.778202
  O      1.259634    1.695497   -1.381263
  O     -1.458663    1.933015    0.222879
  O     -2.790628   -1.129800   -0.540619
  H     -2.953212   -0.158463    1.214825
  H     -2.326549   -1.818310    1.353043
  H      1.204668   -0.298618   -1.929176
  H      2.513153   -0.371723    2.094672
  H      0.809338    2.510385   -1.646817
  H     -2.385769    1.747095    0.018433
  H     -2.252009   -1.822571   -0.949209

 Total Charge           Charge          ....    0
 Multiplicity           Mult            ....    1
 Number of Electrons    NEL             ....   96
 Basis Dimension        Dim             ....  192

ORBITAL ENERGIES
----------------

  NO   OCC          E(Eh)            E(eV)
   0   2.0000     -18.773789      -510.8608
   1   2.0000     -18.766793      -510.6704
   2   2.0000     -18.760729      -510.5054
   3   2.0000     -18.759676      -510.4767
   4   2.0000     -18.748562      -510.1743
   5   2.0000     -18.746326      -510.1135
   6   2.0000      -9.980409      -271.5807
   7   2.0000      -9.951364      -270.7904
   8   2.0000      -9.951061      -270.7821
   9   2.0000      -9.941758      -270.5290
  10   2.0000      -9.933923      -270.3158
  11   2.0000      -9.932538      -270.2781
  12   2.0000      -0.974325       -26.5127
  13   2.0000      -0.949123       -25.8269
  14   2.0000      -0.939763       -25.5723
  15   2.0000      -0.934085       -25.4178
  16   2.0000      -0.923685       -25.1347
  17   2.0000      -0.900091       -24.4927
  18   2.0000      -0.708003       -19.2657
  19   2.0000      -0.687365       -18.7041
  20   2.0000      -0.622514       -16.9395
  21   2.0000      -0.590858       -16.0781
  22   2.0000      -0.561815       -15.2878
  23   2.0000      -0.522427       -14.2160
  24   2.0000      -0.510711       -13.8971
  25   2.0000      -0.488853       -13.3024
  26   2.0000      -0.475856       -12.9487
  27   2.0000      -0.460214       -12.5231
  28   2.0000      -0.451632       -12.2895
  29   2.0000      -0.433527       -11.7969
  30   2.0000      -0.426836       -11.6148
  31   2.0000      -0.393411       -10.7053
  32   2.0000      -0.383947       -10.4477
  33   2.0000      -0.370231       -10.0745
  34   2.0000      -0.364622        -9.9219
  35   2.0000      -0.356882        -9.7112
  36   2.0000      -0.323545        -8.8041
  37   2.0000      -0.319902        -8.7050
  38   2.0000      -0.313392        -8.5278
  39   2.0000      -0.289494        -7.8775
  40   2.0000      -0.282228        -7.6798
  41   2.0000      -0.269474        -7.3328
  42   2.0000      -0.252406        -6.8683
  43   2.0000      -0.246411        -6.7052
  44   2.0000      -0.236971        -6.4483
  45   2.0000      -0.225918        -6.1475
  46   2.0000      -0.213559        -5.8112
  47   2.0000      -0.206243        -5.6122
  48   0.0000       0.007634         0.2077
  49   0.0000       0.019677         0.5354
  50   0.0000       0.029348         0.7986
  51   0.0000       0.051894         1.4121
  52   0.0000       0.062136         1.6908

MULLIKEN ATOMIC CHARGES
-----------------------
   0 C :    0.056954
   1 C :    0.019708
   2 H :    0.068358
   3 C :    0.053193
   4 H :    0.034545
   5 C :    0.043520
   6 H :    0.084407
   7 C :   -0.006044
   8 H :    0.087627
   9 C :    0.199041
  10 H :    0.051710
  11 O :   -0.320289
  12 O :   -0.404633
  13 O :   -0.404991
  14 O :   -0.418513
  15 O :   -0.419652
  16 O :   -0.443329
  17 H :    0.078323
  18 H :    0.090385
  19 H :    0.304666
  20 H :    0.310028
  21 H :    0.316077
  22 H :    0.312724
  23 H :    0.306186
Sum of atomic charges:   -0.0000000

LOEWDIN ATOMIC CHARGES
----------------------
   0 C :   -0.130598
   1 C :   -0.083298
   2 H :    0.112262
   3 C :   -0.085150
   4 H :    0.099099
   5 C :   -0.062652
   6 H :    0.122107
   7 C :   -0.090423
   8 H :    0.114452
   9 C :   -0.005977
  10 H :    0.098243
  11 O :   -0.155722
  12 O :   -0.314479
  13 O :   -0.306279
  14 O :   -0.312418
  15 O :   -0.318574
  16 O :   -0.339029
  17 H :    0.109275
  18 H :    0.107912
  19 H :    0.272282
  20 H :    0.293394
  21 H :    0.297039
  22 H :    0.291175
  23 H :    0.287358

  Mayer bond orders larger than 0.100000
B(  0-C ,  1-C ) :   1.0313 B(  0-C , 16-O ) :   1.0645 B(  0-C , 17-H ) :   0.9157
B(  0-C , 18-H ) :   0.9213 B(  1-C ,  2-H ) :   0.8537 B(  1-C ,  3-C ) :   1.0608
B(  1-C , 11-O ) :   0.9767 B(  3-C ,  4-H ) :   0.8384 B(  3-C ,  5-C ) :   1.0353
B(  3-C , 15-O ) :   1.0765 B(  5-C ,  6-H ) :   0.8554 B(  5-C ,  7-C ) :   1.0165
B(  5-C , 14-O ) :   1.0430 B(  7-C ,  8-H ) :   0.8900 B(  7-C ,  9-C ) :   1.0158
B(  7-C , 13-O ) :   1.0434 B(  9-C , 10-H ) :   0.9009 B(  9-C , 11-O ) :   1.0474
B(  9-C , 12-O ) :   1.1387 B( 12-O , 19-H ) :   0.8080 B( 13-O , 20-H ) :   0.8448
B( 14-O , 21-H ) :   0.8410 B( 15-O , 22-H ) :   0.8401 B( 16-O , 23-H ) :   0.8393

Dispersion correction           -0.025091878
FINAL SINGLE POINT ENERGY      -685.695516488312

DIPOLE MOMENT
-------------

Method             : SCF
Type of density    : Electron Density
Multiplicity       :   1
Irrep              :   0
Energy             :  -685.8270308062470804 Eh
Relativity type    :
Basis              : AO
                                X                 Y                 Z
Electronic contribution:      1.577429243      -0.217023938      -1.139263195
Nuclear contribution   :     -1.297360465       0.664628283       1.367733334
                        -----------------------------------------
Total Dipole Moment    :      0.280068778       0.447604345       0.228470139
                        -----------------------------------------
Magnitude (a.u.)       :      0.575314501
Magnitude (Debye)      :      1.462333248

Rotational constants in cm-1:             0.040380             0.026926             0.023428
Rotational constants in MHz :          1210.571927           807.216618           702.364967

                             ****ORCA TERMINATED NORMALLY****
TOTAL RUN TIME: 0 days 0 hours 0 minutes 12 seconds 13 msec
