                         Program Version 6.0.0  -   RELEASE  -
|  1> ! pbe def2-sv(p) def2/J RI DEFGRID1 loosescf d4 GCP(DFT/SV(P)) printgap
|  2> %output
|  3>     printlevel normal
|  4> end
|  5> * xyz 0 1
|  6> C 1.4350903919 0.0002075638 -0.5820308352
|  7> C 0.969169572 1.1783480381 0.2136480672
|  8> C -0.3295646685 1.4920846122 0.2930928228
|  9> C -1.3999752008 0.6755013214 -0.2072750678
| 10> C -1.3998204775 -0.6758308307 -0.2071938859
| 11> C -0.3292333797 -1.4921673796 0.2932103874
| 12> C 0.9694743803 -1.178145349 0.2135030853
| 13> H 2.515270735 0.0003429711 -0.7071209319
| 14> H 0.9497806962 0.0001061798 -1.5620339088
| 15> H 1.7121968283 1.7770613711 0.7206527111
| 16> H -0.6254262147 2.4097922754 0.7849185111
| 17> H -2.3144985042 1.1915628604 -0.4716017036
| 18> H -2.3139756239 -1.1920543084 -0.4718431548
| 19> H -0.624868298 -2.4099532389 0.7850188165
| 20> H 1.7127143703 -1.7768339948 0.7199770419
| 21> *
| 22>
| 23>                          ****END OF INPUT****

CARTESIAN COORDINATES (ANGSTROEM)
---------------------------------
  C      1.435090    0.000208   -0.582031
  C      0.969170    1.178348    0.213648
  C     -0.329565    1.492085    0.293093
  C     -1.399975    0.675501   -0.207275
  C     -1.399820   -0.675831   -0.207194
  C     -0.329233   -1.492167    0.293210
  C      0.969474   -1.178145    0.213503
  H      2.515271    0.000343   -0.707121
  H      0.949781    0.000106   -1.562034
  H      1.712197    1.777061    0.720653
  H     -0.625426    2.409792    0.784919
  H     -2.314499    1.191563   -0.471602
  H     -2.313976   -1.192054   -0.471843
  H     -0.624868   -2.409953    0.785019
  H      1.712714   -1.776834    0.719977

 Total Charge           Charge          ....    0
 Multiplicity           Mult            ....    1
 Number of Electrons    NEL             ....   50
 Basis Dimension        Dim             ....  114

ORBITAL ENERGIES
----------------

  NO   OCC          E(Eh)            E(eV)
   0   2.0000      -9.894922      -269.2545
   1   2.0000      -9.894887      -269.2536
   2   2.0000      -9.892539      -269.1897
   3   2.0000      -9.892100      -269.1777
   4   2.0000      -9.889306      -269.1017
   5   2.0000      -9.886137      -269.0155
   6   2.0000      -9.886083      -269.0140
   7   2.0000      -0.763574       -20.7779
   8   2.0000      -0.688331       -18.7304
   9   2.0000      -0.685600       -18.6561
  10   2.0000      -0.589041       -16.0286
  11   2.0000      -0.560718       -15.2579
  12   2.0000      -0.479441       -13.0463
  13   2.0000      -0.462443       -12.5837
  14   2.0000      -0.442447       -12.0396
  15   2.0000      -0.402162       -10.9434
  16   2.0000      -0.399643       -10.8748
  17   2.0000      -0.382771       -10.4157
  18   2.0000      -0.332013        -9.0345
  19   2.0000      -0.331495        -9.0204
  20   2.0000      -0.312111        -8.4930
  21   2.0000      -0.298742        -8.1292
  22   2.0000      -0.276286        -7.5181
  23   2.0000      -0.220679        -6.0050
  24   2.0000      -0.200082        -5.4445
  25   0.0000      -0.057113        -1.5541
  26   0.0000      -0.013267        -0.3610
  27   0.0000       0.038459         1.0465
  28   0.0000       0.055981         1.5233
  29   0.0000       0.072013         1.9596

MULLIKEN ATOMIC CHARGES
-----------------------
   0 C :   -0.042842
   1 C :   -0.152344
   2 C :   -0.034723
   3 C :   -0.089172
   4 C :   -0.089182
   5 C :   -0.034659
   6 C :   -0.152380
   7 H :    0.079620
   8 H :    0.115058
   9 H :    0.068766
  10 H :    0.067735
  11 H :    0.063846
  12 H :    0.063808
  13 H :    0.067742
  14 H :    0.068729
Sum of atomic charges:   -0.0000000

LOEWDIN ATOMIC CHARGES
----------------------
   0 C :   -0.221332
   1 C :   -0.113510
   2 C :   -0.144642
   3 C :   -0.133132
   4 C :   -0.133145
   5 C :   -0.144629
   6 C :   -0.113516
   7 H :    0.124598
   8 H :    0.133994
   9 H :    0.121810
  10 H :    0.127437
  11 H :    0.123407
  12 H :    0.123415
  13 H :    0.127442
  14 H :    0.121805

  Mayer bond orders larger than 0.100000
B(  0-C ,  1-C ) :   1.0650 B(  0-C ,  6-C ) :   1.0650 B(  0-C ,  7-H ) :   0.9079
B(  0-C ,  8-H ) :   0.8921 B(  1-C ,  2-C ) :   1.7832 B(  1-C ,  9-H ) :   0.9356
B(  2-C ,  3-C ) :   1.1875 B(  2-C , 10-H ) :   0.9306 B(  3-C ,  4-C ) :   1.6762
B(  3-C , 11-H ) :   0.9317 B(  4-C ,  5-C ) :   1.1874 B(  4-C , 12-H ) :   0.9318
B(  5-C ,  6-C ) :   1.7832 B(  5-C , 13-H ) :   0.9306 B(  6-C , 14-H ) :   0.9357

Dispersion correction           -0.014874276
FINAL SINGLE POINT ENERGY      -270.886792353574

DIPOLE MOMENT
-------------

Method             : SCF
Type of density    : Electron Density
Multiplicity       :   1
Irrep              :   0
Energy             :  -270.9278082795801765 Eh
Relativity type    :
Basis              : AO
                                X                 Y                 Z
Electronic contribution:     -0.837985620      -0.000124920       0.259327027
Nuclear contribution   :      0.948675298       0.000022625      -0.189541628
                        -----------------------------------------
Total Dipole Moment    :      0.110689678      -0.000102295       0.069785399
                        -----------------------------------------
Magnitude (a.u.)       :      0.130851890
Magnitude (Debye)      :      0.332599073

Rotational constants in cm-1:             0.127039             0.124196             0.070091
Rotational constants in MHz :          3808.519665          3723.301180          2101.287739

                             ****ORCA TERMINATED NORMALLY****
TOTAL RUN TIME: 0 days 0 hours 0 minutes 7 seconds 482 msec
