                         Program Version 6.0.0  -   RELEASE  -
|  1> ! pbe def2-sv(p) def2/J RI DEFGRID1 loosescf d4 GCP(DFT/SV(P)) printgap
|  2> %output
|  3>     printlevel normal
|  4> end
|  5> * xyz 0 1
|  6> C -2.8523328586 -0.6600191873 0.3486014563
|  7> C -1.9755788568 0.4115631572 -0.2907890664
|  8> C -0.4917415732 0.2019190759 -0.1336374516
|  9> C 0.0720456228 -1.0444979832 0.104723026
| 10> C 1.4442948032 -1.190562548 0.2237762004
| 11> C 2.2782424838 -0.0936030167 0.1028240138
| 12> C 1.7288704061 1.1547599753 -0.1385655449
| 13> C 0.3587444543 1.2974750392 -0.2534687556
| 14> H -3.8958723107 -0.3589572649 0.2963802478
| 15> H -2.585555602 -0.7986503152 1.3938417169
| 16> H -2.7519460721 -1.6112094837 -0.1677034121
| 17> H -2.2303084017 1.3837911922 0.1384781784
| 18> H -2.2015772701 0.4657411658 -1.3606433807
| 19> H -0.5564070321 -1.9157017313 0.2010382126
| 20> H 1.8628702798 -2.1685638667 0.4119239106
| 21> H 3.347805339 -0.2088921822 0.1962124612
| 22> H 2.3698811365 2.0189021018 -0.2345819332
| 23> H -0.0626521155 2.2755311289 -0.4395502666
| 24> *
| 25>
| 26>                          ****END OF INPUT****

CARTESIAN COORDINATES (ANGSTROEM)
---------------------------------
  C     -2.852333   -0.660019    0.348601
  C     -1.975579    0.411563   -0.290789
  C     -0.491742    0.201919   -0.133637
  C      0.072046   -1.044498    0.104723
  C      1.444295   -1.190563    0.223776
  C      2.278242   -0.093603    0.102824
  C      1.728870    1.154760   -0.138566
  C      0.358744    1.297475   -0.253469
  H     -3.895872   -0.358957    0.296380
  H     -2.585556   -0.798650    1.393842
  H     -2.751946   -1.611209   -0.167703
  H     -2.230308    1.383791    0.138478
  H     -2.201577    0.465741   -1.360643
  H     -0.556407   -1.915702    0.201038
  H      1.862870   -2.168564    0.411924
  H      3.347805   -0.208892    0.196212
  H      2.369881    2.018902   -0.234582
  H     -0.062652    2.275531   -0.439550

 Total Charge           Charge          ....    0
 Multiplicity           Mult            ....    1
 Number of Electrons    NEL             ....   58
 Basis Dimension        Dim             ....  132

ORBITAL ENERGIES
----------------

  NO   OCC          E(Eh)            E(eV)
   0   2.0000      -9.898595      -269.3545
   1   2.0000      -9.891511      -269.1617
   2   2.0000      -9.886928      -269.0370
   3   2.0000      -9.886889      -269.0359
   4   2.0000      -9.885578      -269.0003
   5   2.0000      -9.885289      -268.9924
   6   2.0000      -9.884917      -268.9823
   7   2.0000      -9.878245      -268.8007
   8   2.0000      -0.774646       -21.0792
   9   2.0000      -0.708760       -19.2863
  10   2.0000      -0.665371       -18.1057
  11   2.0000      -0.646315       -17.5871
  12   2.0000      -0.568885       -15.4801
  13   2.0000      -0.536084       -14.5876
  14   2.0000      -0.510340       -13.8871
  15   2.0000      -0.460100       -12.5199
  16   2.0000      -0.412362       -11.2209
  17   2.0000      -0.403946       -10.9919
  18   2.0000      -0.393698       -10.7131
  19   2.0000      -0.380983       -10.3671
  20   2.0000      -0.367549       -10.0015
  21   2.0000      -0.336816        -9.1652
  22   2.0000      -0.329452        -8.9648
  23   2.0000      -0.319955        -8.7064
  24   2.0000      -0.306290        -8.3346
  25   2.0000      -0.289197        -7.8695
  26   2.0000      -0.288120        -7.8401
  27   2.0000      -0.224950        -6.1212
  28   2.0000      -0.215965        -5.8767
  29   0.0000      -0.031099        -0.8462
  30   0.0000      -0.027963        -0.7609
  31   0.0000       0.042712         1.1622
  32   0.0000       0.055358         1.5064
  33   0.0000       0.067665         1.8413

MULLIKEN ATOMIC CHARGES
-----------------------
   0 C :   -0.281297
   1 C :   -0.144460
   2 C :    0.069967
   3 C :   -0.130430
   4 C :   -0.043392
   5 C :   -0.051073
   6 C :   -0.045742
   7 C :   -0.118325
   8 H :    0.104128
   9 H :    0.108807
  10 H :    0.112373
  11 H :    0.091384
  12 H :    0.105790
  13 H :    0.038121
  14 H :    0.048338
  15 H :    0.050237
  16 H :    0.049527
  17 H :    0.036048
Sum of atomic charges:   -0.0000000

LOEWDIN ATOMIC CHARGES
----------------------
   0 C :   -0.340736
   1 C :   -0.220667
   2 C :   -0.040710
   3 C :   -0.128853
   4 C :   -0.121015
   5 C :   -0.130184
   6 C :   -0.121949
   7 C :   -0.123352
   8 H :    0.122254
   9 H :    0.121953
  10 H :    0.119355
  11 H :    0.124482
  12 H :    0.131690
  13 H :    0.121836
  14 H :    0.121976
  15 H :    0.121930
  16 H :    0.122216
  17 H :    0.119773

  Mayer bond orders larger than 0.100000
B(  0-C ,  1-C ) :   1.1794 B(  0-C ,  8-H ) :   0.9479 B(  0-C ,  9-H ) :   0.9552
B(  0-C , 10-H ) :   0.9397 B(  1-C ,  2-C ) :   1.0558 B(  1-C , 11-H ) :   0.9137
B(  1-C , 12-H ) :   0.8990 B(  2-C ,  3-C ) :   1.4068 B(  2-C ,  7-C ) :   1.3878
B(  3-C ,  4-C ) :   1.3631 B(  3-C , 13-H ) :   0.9556 B(  4-C ,  5-C ) :   1.3889
B(  4-C , 14-H ) :   0.9617 B(  5-C ,  6-C ) :   1.3719 B(  5-C , 15-H ) :   0.9654
B(  6-C ,  7-C ) :   1.3854 B(  6-C , 16-H ) :   0.9630 B(  7-C , 17-H ) :   0.9631

Dispersion correction           -0.017304514
FINAL SINGLE POINT ENERGY      -310.153837119186

DIPOLE MOMENT
-------------

Method             : SCF
Type of density    : Electron Density
Multiplicity       :   1
Irrep              :   0
Energy             :  -310.2045287357717029 Eh
Relativity type    :
Basis              : AO
                                X                 Y                 Z
Electronic contribution:      6.111063496       0.883042304      -0.444539829
Nuclear contribution   :     -6.289252216      -0.861246521       0.408474163
                        -----------------------------------------
Total Dipole Moment    :     -0.178188720       0.021795783      -0.036065666
                        -----------------------------------------
Magnitude (a.u.)       :      0.183103818
Magnitude (Debye)      :      0.465412919

Rotational constants in cm-1:             0.161288             0.049608             0.038812
Rotational constants in MHz :          4835.306898          1487.198299          1163.546526

                             ****ORCA TERMINATED NORMALLY****
TOTAL RUN TIME: 0 days 0 hours 0 minutes 7 seconds 992 msec
