                         Program Version 6.0.0  -   RELEASE  -
|  1> ! wb97x-v def2-tzvp def2/J RIJCOSX DEFGRID2 scfconv7 GCP(DFT/TZ) printgap
|  2> %output
|  3>     printlevel normal
|  4> end
|  5> * xyz 0 1
|  6> C 2.3459311843645367 -0.7138888367865642 0.12823813397929235
|  7> C 0.863429441898385 -0.5301267278450327 0.44569331802241924
|  8> H 0.6923881339167469 -0.8860859532146886 1.4735700599806432
|  9> C -0.012048765994677529 -1.388464563294367 -0.4761952849516881
| 10> C -1.4967056573544306 -1.2639202030449157 -0.12930771996301807
| 11> C -1.9470947702092574 0.1979620192443693 -0.1499330944708543
| 12> C -1.071339267717792 1.048478493365893 0.773863308474144
| 13> C 0.42354732829216624 0.951401560852127 0.4256873159807897
| 14> H 0.984887227637 1.466380133162619 1.2186876772932216
| 15> C 0.745441034457634 1.6651933262310894 -0.8906674830040185
| 16> H 2.56086109902254 -0.48732923596685046 -0.9220015089254914
| 17> H 2.9712704800370946 -0.061194215068913 0.7485162002405075
| 18> H 2.655626329573477 -1.7489261252614754 0.31099622519575276
| 19> H 0.14715600023821857 -1.0845578269664493 -1.5201640017553582
| 20> H 0.30701755494226907 -2.436171143181228 -0.40489247953133883
| 21> H -2.101121249684971 -1.8603700398045193 -0.8232001326529345
| 22> H -1.6656339635781696 -1.6754748618340345 0.8760905764415736
| 23> H -1.8927757687426394 0.5825240499853036 -1.1771038401270812
| 24> H -2.9966847630323112 0.2759742347503299 0.15794272731872688
| 25> H -1.390277762620317 2.0978855489999266 0.7412681239317822
| 26> H -1.2156969401973579 0.702932512213238 1.8072308357974196
| 27> H 0.35602421610366003 2.689563333716351 -0.8691378787063676
| 28> H 0.30382023982679107 1.1630876231072986 -1.757444106559866
| 29> H 1.825331098607626 1.727272837145571 -1.0586491312076403
| 30> *
| 31>
| 32>                          ****END OF INPUT****

CARTESIAN COORDINATES (ANGSTROEM)
---------------------------------
  C      2.345931   -0.713889    0.128238
  C      0.863429   -0.530127    0.445693
  H      0.692388   -0.886086    1.473570
  C     -0.012049   -1.388465   -0.476195
  C     -1.496706   -1.263920   -0.129308
  C     -1.947095    0.197962   -0.149933
  C     -1.071339    1.048478    0.773863
  C      0.423547    0.951402    0.425687
  H      0.984887    1.466380    1.218688
  C      0.745441    1.665193   -0.890667
  H      2.560861   -0.487329   -0.922002
  H      2.971270   -0.061194    0.748516
  H      2.655626   -1.748926    0.310996
  H      0.147156   -1.084558   -1.520164
  H      0.307018   -2.436171   -0.404892
  H     -2.101121   -1.860370   -0.823200
  H     -1.665634   -1.675475    0.876091
  H     -1.892776    0.582524   -1.177104
  H     -2.996685    0.275974    0.157943
  H     -1.390278    2.097886    0.741268
  H     -1.215697    0.702933    1.807231
  H      0.356024    2.689563   -0.869138
  H      0.303820    1.163088   -1.757444
  H      1.825331    1.727273   -1.058649

 Total Charge           Charge          ....    0
 Multiplicity           Mult            ....    1
 Number of Electrons    NEL             ....   64
 Basis Dimension        Dim             ....  344

ORBITAL ENERGIES
----------------

  NO   OCC          E(Eh)            E(eV)
   0   2.0000     -12.041914      -327.6771
   1   2.0000     -12.040774      -327.6461
   2   2.0000     -12.035042      -327.4901
   3   2.0000     -12.034237      -327.4682
   4   2.0000     -12.033078      -327.4367
   5   2.0000     -12.032761      -327.4281
   6   2.0000     -12.028922      -327.3236
   7   2.0000     -12.028494      -327.3120
   8   2.0000      -1.343630       -36.5620
   9   2.0000      -1.268692       -34.5229
  10   2.0000      -1.259391       -34.2698
  11   2.0000      -1.189888       -32.3785
  12   2.0000      -1.149380       -31.2762
  13   2.0000      -1.078976       -29.3604
  14   2.0000      -1.064040       -28.9540
  15   2.0000      -0.985849       -26.8263
  16   2.0000      -0.909764       -24.7559
  17   2.0000      -0.885746       -24.1024
  18   2.0000      -0.872802       -23.7501
  19   2.0000      -0.869711       -23.6660
  20   2.0000      -0.853329       -23.2203
  21   2.0000      -0.833386       -22.6776
  22   2.0000      -0.822384       -22.3782
  23   2.0000      -0.807505       -21.9733
  24   2.0000      -0.805180       -21.9101
  25   2.0000      -0.788701       -21.4617
  26   2.0000      -0.782312       -21.2878
  27   2.0000      -0.773661       -21.0524
  28   2.0000      -0.757621       -20.6159
  29   2.0000      -0.743168       -20.2226
  30   2.0000      -0.731868       -19.9151
  31   2.0000      -0.729098       -19.8398
  32   0.0000      -0.039018        -1.0617
  33   0.0000      -0.031523        -0.8578
  34   0.0000      -0.025936        -0.7057
  35   0.0000      -0.023186        -0.6309
  36   0.0000      -0.017604        -0.4790

MULLIKEN ATOMIC CHARGES
-----------------------
   0 C :   -0.372060
   1 C :   -0.021284
   2 H :    0.067110
   3 C :   -0.245797
   4 C :   -0.155128
   5 C :   -0.213143
   6 C :   -0.198742
   7 C :    0.034740
   8 H :    0.069250
   9 C :   -0.421467
  10 H :    0.114806
  11 H :    0.113434
  12 H :    0.112587
  13 H :    0.096717
  14 H :    0.097396
  15 H :    0.098128
  16 H :    0.085504
  17 H :    0.098065
  18 H :    0.100190
  19 H :    0.098845
  20 H :    0.093232
  21 H :    0.112914
  22 H :    0.111860
  23 H :    0.122842
Sum of atomic charges:    0.0000000

LOEWDIN ATOMIC CHARGES
----------------------
   0 C :   -0.280979
   1 C :   -0.260953
   2 H :    0.150648
   3 C :   -0.235852
   4 C :   -0.258143
   5 C :   -0.258833
   6 C :   -0.236189
   7 C :   -0.258108
   8 H :    0.148102
   9 C :   -0.279136
  10 H :    0.118511
  11 H :    0.118709
  12 H :    0.117962
  13 H :    0.133660
  14 H :    0.133519
  15 H :    0.129819
  16 H :    0.133070
  17 H :    0.132281
  18 H :    0.130569
  19 H :    0.131931
  20 H :    0.135062
  21 H :    0.119864
  22 H :    0.115646
  23 H :    0.118838

  Mayer bond orders larger than 0.100000
B(  0-C ,  1-C ) :   0.9562 B(  0-C , 10-H ) :   0.9802 B(  0-C , 11-H ) :   0.9860
B(  0-C , 12-H ) :   0.9843 B(  1-C ,  2-H ) :   0.9687 B(  1-C ,  3-C ) :   0.9764
B(  1-C ,  7-C ) :   0.9718 B(  3-C ,  4-C ) :   0.9892 B(  3-C , 13-H ) :   0.9767
B(  3-C , 14-H ) :   0.9754 B(  4-C ,  5-C ) :   0.9842 B(  4-C , 15-H ) :   0.9781
B(  4-C , 16-H ) :   0.9741 B(  5-C ,  6-C ) :   0.9793 B(  5-C , 17-H ) :   0.9825
B(  5-C , 18-H ) :   0.9769 B(  6-C ,  7-C ) :   0.9778 B(  6-C , 19-H ) :   0.9809
B(  6-C , 20-H ) :   0.9772 B(  7-C ,  8-H ) :   0.9673 B(  7-C ,  9-C ) :   0.9412
B(  9-C , 21-H ) :   0.9827 B(  9-C , 22-H ) :   0.9790 B(  9-C , 23-H ) :   0.9863

FINAL SINGLE POINT ENERGY      -314.518135963541

DIPOLE MOMENT
-------------

Method             : SCF
Type of density    : Electron Density
Multiplicity       :   1
Irrep              :   0
Energy             :  -314.5355500075406781 Eh
Relativity type    :
Basis              : AO
                                X                 Y                 Z
Electronic contribution:     -1.498716005      -0.432937751       1.212162921
Nuclear contribution   :      1.478040133       0.427569769      -1.167289920
                        -----------------------------------------
Total Dipole Moment    :     -0.020675872      -0.005367982       0.044873001
                        -----------------------------------------
Magnitude (a.u.)       :      0.049698019
Magnitude (Debye)      :      0.126322325

Rotational constants in cm-1:             0.088498             0.063526             0.045835
Rotational constants in MHz :          2653.099596          1904.475512          1374.110371

                             ****ORCA TERMINATED NORMALLY****
TOTAL RUN TIME: 0 days 0 hours 3 minutes 37 seconds 516 msec
