                         Program Version 6.0.0  -   RELEASE  -
|  1> ! wb97x-v def2-tzvp def2/J RIJCOSX DEFGRID2 scfconv7 GCP(DFT/TZ) printgap
|  2> %output
|  3>     printlevel normal
|  4> end
|  5> %cpcm
|  6>     smd true
|  7>     smdsolvent "water"
|  8> end
|  9> * xyz 0 1
| 10> C 2.3459311843645367 -0.7138888367865642 0.12823813397929235
| 11> C 0.863429441898385 -0.5301267278450327 0.44569331802241924
| 12> H 0.6923881339167469 -0.8860859532146886 1.4735700599806432
| 13> C -0.012048765994677529 -1.388464563294367 -0.4761952849516881
| 14> C -1.4967056573544306 -1.2639202030449157 -0.12930771996301807
| 15> C -1.9470947702092574 0.1979620192443693 -0.1499330944708543
| 16> C -1.071339267717792 1.048478493365893 0.773863308474144
| 17> C 0.42354732829216624 0.951401560852127 0.4256873159807897
| 18> H 0.984887227637 1.466380133162619 1.2186876772932216
| 19> C 0.745441034457634 1.6651933262310894 -0.8906674830040185
| 20> H 2.56086109902254 -0.48732923596685046 -0.9220015089254914
| 21> H 2.9712704800370946 -0.061194215068913 0.7485162002405075
| 22> H 2.655626329573477 -1.7489261252614754 0.31099622519575276
| 23> H 0.14715600023821857 -1.0845578269664493 -1.5201640017553582
| 24> H 0.30701755494226907 -2.436171143181228 -0.40489247953133883
| 25> H -2.101121249684971 -1.8603700398045193 -0.8232001326529345
| 26> H -1.6656339635781696 -1.6754748618340345 0.8760905764415736
| 27> H -1.8927757687426394 0.5825240499853036 -1.1771038401270812
| 28> H -2.9966847630323112 0.2759742347503299 0.15794272731872688
| 29> H -1.390277762620317 2.0978855489999266 0.7412681239317822
| 30> H -1.2156969401973579 0.702932512213238 1.8072308357974196
| 31> H 0.35602421610366003 2.689563333716351 -0.8691378787063676
| 32> H 0.30382023982679107 1.1630876231072986 -1.757444106559866
| 33> H 1.825331098607626 1.727272837145571 -1.0586491312076403
| 34> *
| 35>
| 36>                          ****END OF INPUT****

CARTESIAN COORDINATES (ANGSTROEM)
---------------------------------
  C      2.345931   -0.713889    0.128238
  C      0.863429   -0.530127    0.445693
  H      0.692388   -0.886086    1.473570
  C     -0.012049   -1.388465   -0.476195
  C     -1.496706   -1.263920   -0.129308
  C     -1.947095    0.197962   -0.149933
  C     -1.071339    1.048478    0.773863
  C      0.423547    0.951402    0.425687
  H      0.984887    1.466380    1.218688
  C      0.745441    1.665193   -0.890667
  H      2.560861   -0.487329   -0.922002
  H      2.971270   -0.061194    0.748516
  H      2.655626   -1.748926    0.310996
  H      0.147156   -1.084558   -1.520164
  H      0.307018   -2.436171   -0.404892
  H     -2.101121   -1.860370   -0.823200
  H     -1.665634   -1.675475    0.876091
  H     -1.892776    0.582524   -1.177104
  H     -2.996685    0.275974    0.157943
  H     -1.390278    2.097886    0.741268
  H     -1.215697    0.702933    1.807231
  H      0.356024    2.689563   -0.869138
  H      0.303820    1.163088   -1.757444
  H      1.825331    1.727273   -1.058649

 Total Charge           Charge          ....    0
 Multiplicity           Mult            ....    1
 Number of Electrons    NEL             ....   64
 Basis Dimension        Dim             ....  344

ORBITAL ENERGIES
----------------

  NO   OCC          E(Eh)            E(eV)
   0   2.0000     -12.033550      -327.4495
   1   2.0000     -12.032375      -327.4176
   2   2.0000     -12.026964      -327.2703
   3   2.0000     -12.026056      -327.2456
   4   2.0000     -12.024791      -327.2112
   5   2.0000     -12.024185      -327.1947
   6   2.0000     -12.020803      -327.1027
   7   2.0000     -12.019577      -327.0693
   8   2.0000      -1.335345       -36.3366
   9   2.0000      -1.260732       -34.3062
  10   2.0000      -1.251239       -34.0479
  11   2.0000      -1.181985       -32.1634
  12   2.0000      -1.141505       -31.0619
  13   2.0000      -1.070918       -29.1411
  14   2.0000      -1.056254       -28.7421
  15   2.0000      -0.977692       -26.6044
  16   2.0000      -0.901636       -24.5348
  17   2.0000      -0.877470       -23.8772
  18   2.0000      -0.864770       -23.5316
  19   2.0000      -0.861556       -23.4441
  20   2.0000      -0.845314       -23.0022
  21   2.0000      -0.825174       -22.4541
  22   2.0000      -0.814410       -22.1612
  23   2.0000      -0.799492       -21.7553
  24   2.0000      -0.797207       -21.6931
  25   2.0000      -0.780660       -21.2428
  26   2.0000      -0.774095       -21.0642
  27   2.0000      -0.765370       -20.8268
  28   2.0000      -0.749408       -20.3924
  29   2.0000      -0.735083       -20.0026
  30   2.0000      -0.723617       -19.6906
  31   2.0000      -0.720670       -19.6104
  32   0.0000      -0.029580        -0.8049
  33   0.0000      -0.023611        -0.6425
  34   0.0000      -0.017884        -0.4866
  35   0.0000      -0.015318        -0.4168
  36   0.0000      -0.009480        -0.2580

MULLIKEN ATOMIC CHARGES
-----------------------
   0 C :   -0.424062
   1 C :   -0.016374
   2 H :    0.075956
   3 C :   -0.267504
   4 C :   -0.182667
   5 C :   -0.233839
   6 C :   -0.223949
   7 C :    0.033722
   8 H :    0.078742
   9 C :   -0.473693
  10 H :    0.127812
  11 H :    0.127409
  12 H :    0.128177
  13 H :    0.108700
  14 H :    0.109305
  15 H :    0.109070
  16 H :    0.095367
  17 H :    0.108285
  18 H :    0.111503
  19 H :    0.110633
  20 H :    0.103604
  21 H :    0.127503
  22 H :    0.131195
  23 H :    0.135105
Sum of atomic charges:    0.0000000

LOEWDIN ATOMIC CHARGES
----------------------
   0 C :   -0.288013
   1 C :   -0.260759
   2 H :    0.152549
   3 C :   -0.238730
   4 C :   -0.261686
   5 C :   -0.262287
   6 C :   -0.239428
   7 C :   -0.258333
   8 H :    0.149554
   9 C :   -0.285698
  10 H :    0.120311
  11 H :    0.120556
  12 H :    0.119516
  13 H :    0.136193
  14 H :    0.134602
  15 H :    0.130831
  16 H :    0.134641
  17 H :    0.134305
  18 H :    0.131512
  19 H :    0.133299
  20 H :    0.136672
  21 H :    0.121165
  22 H :    0.119163
  23 H :    0.120064

  Mayer bond orders larger than 0.100000
B(  0-C ,  1-C ) :   0.9455 B(  0-C , 10-H ) :   0.9779 B(  0-C , 11-H ) :   0.9837
B(  0-C , 12-H ) :   0.9830 B(  1-C ,  2-H ) :   0.9686 B(  1-C ,  3-C ) :   0.9771
B(  1-C ,  7-C ) :   0.9737 B(  3-C ,  4-C ) :   0.9908 B(  3-C , 13-H ) :   0.9733
B(  3-C , 14-H ) :   0.9741 B(  4-C ,  5-C ) :   0.9847 B(  4-C , 15-H ) :   0.9763
B(  4-C , 16-H ) :   0.9736 B(  5-C ,  6-C ) :   0.9805 B(  5-C , 17-H ) :   0.9796
B(  5-C , 18-H ) :   0.9752 B(  6-C ,  7-C ) :   0.9759 B(  6-C , 19-H ) :   0.9793
B(  6-C , 20-H ) :   0.9763 B(  7-C ,  8-H ) :   0.9668 B(  7-C ,  9-C ) :   0.9347
B(  9-C , 21-H ) :   0.9811 B(  9-C , 22-H ) :   0.9761 B(  9-C , 23-H ) :   0.9834

FINAL SINGLE POINT ENERGY      -314.515326706507

DIPOLE MOMENT
-------------

Method             : SCF
Type of density    : Electron Density
Multiplicity       :   1
Irrep              :   0
Energy             :  -314.5327407505068322 Eh
Relativity type    :
Basis              : AO
                                X                 Y                 Z
Electronic contribution:     -1.499781984      -0.433224899       1.218515043
Nuclear contribution   :      1.478040133       0.427569769      -1.167289920
                        -----------------------------------------
Total Dipole Moment    :     -0.021741851      -0.005655130       0.051225123
                        -----------------------------------------
Magnitude (a.u.)       :      0.055934799
Magnitude (Debye)      :      0.142174961

Rotational constants in cm-1:             0.088498             0.063526             0.045835
Rotational constants in MHz :          2653.099596          1904.475512          1374.110371

                             ****ORCA TERMINATED NORMALLY****
TOTAL RUN TIME: 0 days 0 hours 3 minutes 47 seconds 994 msec
