                         Program Version 6.0.0  -   RELEASE  -
|  1> ! pbe def2-sv(p) def2/J RI DEFGRID1 loosescf d4 GCP(DFT/SV(P)) printgap
|  2> %output
|  3>     printlevel normal
|  4> end
|  5> * xyz 0 1
|  6> C -3.0376207834 -1.457927873 -0.0008638956
|  7> C -1.7404244615 -0.7098242857 6.1441e-05
|  8> C -0.5470869548 -1.3827016756 0.0003584622
|  9> C 0.690581426 -0.7089294296 0.0003995161
| 10> C 1.9239451726 -1.3922352287 0.0004446352
| 11> C 3.103991077 -0.7019096683 -5.17214e-05
| 12> C 3.1039776517 0.7019422653 -0.0005705323
| 13> C 1.923916641 1.3922426998 -0.0003839672
| 14> C 0.6905759103 0.7089036997 0.0001249969
| 15> C -0.5470911036 1.3826540026 0.0002877318
| 16> C -1.7404331987 0.7097649107 0.0002968465
| 17> C -3.0375937403 1.4579811303 0.0001972129
| 18> H -3.6274020363 -1.2017020196 0.8778811984
| 19> H -3.6252765534 -1.2026811493 -0.8813620705
| 20> H -2.8606918338 -2.5300828573 -9.21768e-05
| 21> H -0.5392182202 -2.4642724796 0.0004008232
| 22> H 1.9190721391 -2.4730841794 0.0007470317
| 23> H 4.0456732922 -1.2310458504 -0.0001193904
| 24> H 4.0456267876 1.2311432406 -0.0010388348
| 25> H 1.9190630573 2.4730905848 -0.0006360181
| 26> H -0.5392610939 2.4642230289 0.0002844204
| 27> H -3.6272771127 1.2009430214 0.8787364146
| 28> H -2.8604215056 2.5300953096 0.0021347915
| 29> H -3.6253266943 1.2038434996 -0.8805199014
| 30> *
| 31>
| 32>                          ****END OF INPUT****

CARTESIAN COORDINATES (ANGSTROEM)
---------------------------------
  C     -3.037621   -1.457928   -0.000864
  C     -1.740424   -0.709824    0.000061
  C     -0.547087   -1.382702    0.000358
  C      0.690581   -0.708929    0.000400
  C      1.923945   -1.392235    0.000445
  C      3.103991   -0.701910   -0.000052
  C      3.103978    0.701942   -0.000571
  C      1.923917    1.392243   -0.000384
  C      0.690576    0.708904    0.000125
  C     -0.547091    1.382654    0.000288
  C     -1.740433    0.709765    0.000297
  C     -3.037594    1.457981    0.000197
  H     -3.627402   -1.201702    0.877881
  H     -3.625277   -1.202681   -0.881362
  H     -2.860692   -2.530083   -0.000092
  H     -0.539218   -2.464272    0.000401
  H      1.919072   -2.473084    0.000747
  H      4.045673   -1.231046   -0.000119
  H      4.045627    1.231143   -0.001039
  H      1.919063    2.473091   -0.000636
  H     -0.539261    2.464223    0.000284
  H     -3.627277    1.200943    0.878736
  H     -2.860422    2.530095    0.002135
  H     -3.625327    1.203843   -0.880520

 Total Charge           Charge          ....    0
 Multiplicity           Mult            ....    1
 Number of Electrons    NEL             ....   84
 Basis Dimension        Dim             ....  192

ORBITAL ENERGIES
----------------

  NO   OCC          E(Eh)            E(eV)
   0   2.0000      -9.900049      -269.3940
   1   2.0000      -9.899975      -269.3920
   2   2.0000      -9.897279      -269.3187
   3   2.0000      -9.897183      -269.3160
   4   2.0000      -9.888219      -269.0721
   5   2.0000      -9.888113      -269.0692
   6   2.0000      -9.886500      -269.0254
   7   2.0000      -9.886418      -269.0231
   8   2.0000      -9.886340      -269.0210
   9   2.0000      -9.886291      -269.0196
  10   2.0000      -9.884918      -268.9823
  11   2.0000      -9.884831      -268.9799
  12   2.0000      -0.792909       -21.5762
  13   2.0000      -0.751419       -20.4471
  14   2.0000      -0.698562       -19.0088
  15   2.0000      -0.688142       -18.7253
  16   2.0000      -0.664852       -18.0915
  17   2.0000      -0.613669       -16.6988
  18   2.0000      -0.611682       -16.6447
  19   2.0000      -0.541080       -14.7235
  20   2.0000      -0.534476       -14.5438
  21   2.0000      -0.526067       -14.3150
  22   2.0000      -0.464172       -12.6308
  23   2.0000      -0.433893       -11.8068
  24   2.0000      -0.433836       -11.8053
  25   2.0000      -0.397921       -10.8280
  26   2.0000      -0.395453       -10.7608
  27   2.0000      -0.393464       -10.7067
  28   2.0000      -0.370287       -10.0760
  29   2.0000      -0.368799       -10.0355
  30   2.0000      -0.360006        -9.7963
  31   2.0000      -0.345210        -9.3936
  32   2.0000      -0.344906        -9.3854
  33   2.0000      -0.340301        -9.2601
  34   2.0000      -0.337886        -9.1943
  35   2.0000      -0.313323        -8.5259
  36   2.0000      -0.288167        -7.8414
  37   2.0000      -0.283878        -7.7247
  38   2.0000      -0.281517        -7.6605
  39   2.0000      -0.253077        -6.8866
  40   2.0000      -0.212661        -5.7868
  41   2.0000      -0.190288        -5.1780
  42   0.0000      -0.061654        -1.6777
  43   0.0000      -0.034177        -0.9300
  44   0.0000       0.000117         0.0032
  45   0.0000       0.039687         1.0799
  46   0.0000       0.051259         1.3948

MULLIKEN ATOMIC CHARGES
-----------------------
   0 C :   -0.204231
   1 C :    0.015040
   2 C :   -0.239898
   3 C :    0.173193
   4 C :   -0.128728
   5 C :   -0.042466
   6 C :   -0.042470
   7 C :   -0.128735
   8 C :    0.173196
   9 C :   -0.239893
  10 C :    0.014996
  11 C :   -0.204200
  12 H :    0.109542
  13 H :    0.109575
  14 H :    0.103145
  15 H :    0.020057
  16 H :    0.035178
  17 H :    0.049605
  18 H :    0.049604
  19 H :    0.035177
  20 H :    0.020060
  21 H :    0.109532
  22 H :    0.103140
  23 H :    0.109582
Sum of atomic charges:    0.0000000

LOEWDIN ATOMIC CHARGES
----------------------
   0 C :   -0.320020
   1 C :   -0.046150
   2 C :   -0.115883
   3 C :   -0.027223
   4 C :   -0.113466
   5 C :   -0.127857
   6 C :   -0.127858
   7 C :   -0.113467
   8 C :   -0.027226
   9 C :   -0.115880
  10 C :   -0.046145
  11 C :   -0.320027
  12 H :    0.130151
  13 H :    0.130190
  14 H :    0.125338
  15 H :    0.119909
  16 H :    0.122126
  17 H :    0.122887
  18 H :    0.122886
  19 H :    0.122126
  20 H :    0.119908
  21 H :    0.130149
  22 H :    0.125340
  23 H :    0.130193

  Mayer bond orders larger than 0.100000
B(  0-C ,  1-C ) :   1.1439 B(  0-C , 12-H ) :   0.9215 B(  0-C , 13-H ) :   0.9215
B(  0-C , 14-H ) :   0.9370 B(  1-C ,  2-C ) :   1.4637 B(  1-C , 10-C ) :   1.2802
B(  2-C ,  3-C ) :   1.2100 B(  2-C ,  9-C ) :   0.1010 B(  2-C , 15-H ) :   0.9614
B(  3-C ,  4-C ) :   1.2409 B(  3-C ,  8-C ) :   1.2535 B(  4-C ,  5-C ) :   1.4550
B(  4-C , 16-H ) :   0.9645 B(  5-C ,  6-C ) :   1.2608 B(  5-C , 17-H ) :   0.9617
B(  6-C ,  7-C ) :   1.4551 B(  6-C , 18-H ) :   0.9617 B(  7-C ,  8-C ) :   1.2409
B(  7-C , 19-H ) :   0.9645 B(  8-C ,  9-C ) :   1.2100 B(  9-C , 10-C ) :   1.4637
B(  9-C , 20-H ) :   0.9614 B( 10-C , 11-C ) :   1.1439 B( 11-C , 21-H ) :   0.9215
B( 11-C , 22-H ) :   0.9370 B( 11-C , 23-H ) :   0.9215

Dispersion correction           -0.029210233
FINAL SINGLE POINT ENERGY      -463.487794291192

DIPOLE MOMENT
-------------

Method             : SCF
Type of density    : Electron Density
Multiplicity       :   1
Irrep              :   0
Energy             :  -463.5478235403692224 Eh
Relativity type    :
Basis              : AO
                                X                 Y                 Z
Electronic contribution:      8.420096456      -0.000408923       0.002881117
Nuclear contribution   :     -8.795748927       0.000441080      -0.003362128
                        -----------------------------------------
Total Dipole Moment    :     -0.375652472       0.000032157      -0.000481011
                        -----------------------------------------
Magnitude (a.u.)       :      0.375652781
Magnitude (Debye)      :      0.954833488

Rotational constants in cm-1:             0.073601             0.022565             0.017381
Rotational constants in MHz :          2206.498930           676.480981           521.077964

                             ****ORCA TERMINATED NORMALLY****
TOTAL RUN TIME: 0 days 0 hours 0 minutes 11 seconds 94 msec
