                         Program Version 6.0.0  -   RELEASE  -
|  1> ! pbe def2-sv(p) def2/J RI DEFGRID1 loosescf d4 GCP(DFT/SV(P)) printgap
|  2> %output
|  3>     printlevel normal
|  4> end
|  5> * xyz 0 1
|  6> C -3.2215773154 -0.3284543607 -0.9476518571
|  7> C -1.7384193259 -0.2386310084 -0.5959527385
|  8> H -1.1761355897 -0.1686138765 -1.532436725
|  9> C -1.2816402435 -1.4825125005 0.1836946742
| 10> C -0.1752346206 -1.1756728988 1.1994638597
| 11> C 0.7853446969 -0.0811454865 0.7264613552
| 12> H 1.5270079658 0.1209019698 1.5087226403
| 13> C -0.0003270011 1.1985721474 0.544929695
| 14> O 0.4957724937 2.2978231484 0.7134698214
| 15> C -1.4554285609 1.0306070691 0.2064324297
| 16> C 1.5808909557 -0.471573254 -0.5455977938
| 17> C 2.2802979735 0.7383417667 -1.1618620944
| 18> C 2.6181991744 -1.5423743432 -0.2103581295
| 19> H -3.8275793868 -0.3485136283 -0.044733924
| 20> H -3.5257244207 0.5265029339 -1.5468253961
| 21> H -3.4186999433 -1.233666554 -1.5164021897
| 22> H -2.1326119659 -1.903517282 0.7214529312
| 23> H -0.9408862433 -2.2416630852 -0.5209765733
| 24> H -0.6235328329 -0.8389828032 2.1365642275
| 25> H 0.3792320155 -2.0865784488 1.4220314401
| 26> H -1.9974102893 0.9936292245 1.1562419591
| 27> H -1.7988033628 1.9217871888 -0.3227268823
| 28> H 0.888511093 -0.8819021306 -1.2838054817
| 29> H 1.5621165217 1.4675604509 -1.5306015578
| 30> H 2.9056073999 0.4241276227 -1.9940461223
| 31> H 2.9076666739 1.234051326 -0.4240624218
| 32> H 2.1517062439 -2.43416406 0.1974087811
| 33> H 3.3351374145 -1.1623834361 0.5140631572
| 34> H 3.1586973519 -1.8257179679 -1.1101198919
| 35> *
| 36>
| 37>                          ****END OF INPUT****

CARTESIAN COORDINATES (ANGSTROEM)
---------------------------------
  C     -3.221577   -0.328454   -0.947652
  C     -1.738419   -0.238631   -0.595953
  H     -1.176136   -0.168614   -1.532437
  C     -1.281640   -1.482513    0.183695
  C     -0.175235   -1.175673    1.199464
  C      0.785345   -0.081145    0.726461
  H      1.527008    0.120902    1.508723
  C     -0.000327    1.198572    0.544930
  O      0.495772    2.297823    0.713470
  C     -1.455429    1.030607    0.206432
  C      1.580891   -0.471573   -0.545598
  C      2.280298    0.738342   -1.161862
  C      2.618199   -1.542374   -0.210358
  H     -3.827579   -0.348514   -0.044734
  H     -3.525724    0.526503   -1.546825
  H     -3.418700   -1.233667   -1.516402
  H     -2.132612   -1.903517    0.721453
  H     -0.940886   -2.241663   -0.520977
  H     -0.623533   -0.838983    2.136564
  H      0.379232   -2.086578    1.422031
  H     -1.997410    0.993629    1.156242
  H     -1.798803    1.921787   -0.322727
  H      0.888511   -0.881902   -1.283805
  H      1.562117    1.467560   -1.530602
  H      2.905607    0.424128   -1.994046
  H      2.907667    1.234051   -0.424062
  H      2.151706   -2.434164    0.197409
  H      3.335137   -1.162383    0.514063
  H      3.158697   -1.825718   -1.110120

 Total Charge           Charge          ....    0
 Multiplicity           Mult            ....    1
 Number of Electrons    NEL             ....   86
 Basis Dimension        Dim             ....  190

ORBITAL ENERGIES
----------------

  NO   OCC          E(Eh)            E(eV)
   0   2.0000     -18.728401      -509.6257
   1   2.0000      -9.965289      -271.1693
   2   2.0000      -9.905601      -269.5451
   3   2.0000      -9.905463      -269.5413
   4   2.0000      -9.896934      -269.3093
   5   2.0000      -9.892230      -269.1813
   6   2.0000      -9.891052      -269.1492
   7   2.0000      -9.888976      -269.0927
   8   2.0000      -9.879922      -268.8463
   9   2.0000      -9.877787      -268.7883
  10   2.0000      -9.868955      -268.5479
  11   2.0000      -0.926961       -25.2239
  12   2.0000      -0.769639       -20.9429
  13   2.0000      -0.729348       -19.8466
  14   2.0000      -0.679626       -18.4936
  15   2.0000      -0.654004       -17.7963
  16   2.0000      -0.614777       -16.7289
  17   2.0000      -0.611009       -16.6264
  18   2.0000      -0.557779       -15.1779
  19   2.0000      -0.514878       -14.0105
  20   2.0000      -0.507520       -13.8103
  21   2.0000      -0.470522       -12.8035
  22   2.0000      -0.445665       -12.1272
  23   2.0000      -0.414574       -11.2811
  24   2.0000      -0.412752       -11.2315
  25   2.0000      -0.400478       -10.8976
  26   2.0000      -0.390208       -10.6181
  27   2.0000      -0.372192       -10.1279
  28   2.0000      -0.368649       -10.0314
  29   2.0000      -0.357829        -9.7370
  30   2.0000      -0.347370        -9.4524
  31   2.0000      -0.344222        -9.3668
  32   2.0000      -0.336565        -9.1584
  33   2.0000      -0.332728        -9.0540
  34   2.0000      -0.326598        -8.8872
  35   2.0000      -0.310236        -8.4420
  36   2.0000      -0.301742        -8.2108
  37   2.0000      -0.299350        -8.1457
  38   2.0000      -0.292037        -7.9467
  39   2.0000      -0.277240        -7.5441
  40   2.0000      -0.275757        -7.5037
  41   2.0000      -0.268230        -7.2989
  42   2.0000      -0.184592        -5.0230
  43   0.0000      -0.049425        -1.3449
  44   0.0000       0.018889         0.5140
  45   0.0000       0.038042         1.0352
  46   0.0000       0.049342         1.3427
  47   0.0000       0.064882         1.7655

MULLIKEN ATOMIC CHARGES
-----------------------
   0 C :   -0.215613
   1 C :   -0.213147
   2 H :    0.083849
   3 C :   -0.134126
   4 C :   -0.092705
   5 C :   -0.100933
   6 H :    0.069732
   7 C :    0.006948
   8 O :   -0.168848
   9 C :   -0.087759
  10 C :   -0.223702
  11 C :   -0.212143
  12 C :   -0.234029
  13 H :    0.093822
  14 H :    0.100086
  15 H :    0.103468
  16 H :    0.077683
  17 H :    0.088724
  18 H :    0.079954
  19 H :    0.090448
  20 H :    0.099888
  21 H :    0.094415
  22 H :    0.084665
  23 H :    0.112581
  24 H :    0.094868
  25 H :    0.100643
  26 H :    0.102011
  27 H :    0.096812
  28 H :    0.102410
Sum of atomic charges:   -0.0000000

LOEWDIN ATOMIC CHARGES
----------------------
   0 C :   -0.325757
   1 C :   -0.154035
   2 H :    0.117721
   3 C :   -0.221098
   4 C :   -0.217575
   5 C :   -0.157784
   6 H :    0.132248
   7 C :    0.052868
   8 O :   -0.131163
   9 C :   -0.237791
  10 C :   -0.142878
  11 C :   -0.330303
  12 C :   -0.327260
  13 H :    0.116642
  14 H :    0.118979
  15 H :    0.119673
  16 H :    0.120263
  17 H :    0.119213
  18 H :    0.119462
  19 H :    0.120890
  20 H :    0.142927
  21 H :    0.133251
  22 H :    0.115969
  23 H :    0.119539
  24 H :    0.116337
  25 H :    0.123446
  26 H :    0.115882
  27 H :    0.119757
  28 H :    0.120575

  Mayer bond orders larger than 0.100000
B(  0-C ,  1-C ) :   1.1180 B(  0-C , 13-H ) :   0.9437 B(  0-C , 14-H ) :   0.9479
B(  0-C , 15-H ) :   0.9506 B(  1-C ,  2-H ) :   0.8856 B(  1-C ,  3-C ) :   1.0841
B(  1-C ,  9-C ) :   1.1183 B(  3-C ,  4-C ) :   1.1482 B(  3-C , 16-H ) :   0.9091
B(  3-C , 17-H ) :   0.9115 B(  4-C ,  5-C ) :   1.1019 B(  4-C , 18-H ) :   0.8990
B(  4-C , 19-H ) :   0.9047 B(  5-C ,  6-H ) :   0.8527 B(  5-C ,  7-C ) :   0.9584
B(  5-C , 10-C ) :   1.0203 B(  7-C ,  8-O ) :   2.1471 B(  7-C ,  9-C ) :   1.0417
B(  9-C , 20-H ) :   0.8606 B(  9-C , 21-H ) :   0.8948 B( 10-C , 11-C ) :   1.1335
B( 10-C , 12-C ) :   1.1128 B( 10-C , 22-H ) :   0.8865 B( 11-C , 23-H ) :   0.9312
B( 11-C , 24-H ) :   0.9467 B( 11-C , 25-H ) :   0.9423 B( 12-C , 26-H ) :   0.9434
B( 12-C , 27-H ) :   0.9465 B( 12-C , 28-H ) :   0.9463

Dispersion correction           -0.030638801
FINAL SINGLE POINT ENERGY      -466.028396722160

DIPOLE MOMENT
-------------

Method             : SCF
Type of density    : Electron Density
Multiplicity       :   1
Irrep              :   0
Energy             :  -466.1245784074426410 Eh
Relativity type    :
Basis              : AO
                                X                 Y                 Z
Electronic contribution:      0.182907639       6.888543587       3.699061148
Nuclear contribution   :     -0.579657542      -7.881351816      -3.901803421
                        -----------------------------------------
Total Dipole Moment    :     -0.396749903      -0.992808229      -0.202742273
                        -----------------------------------------
Magnitude (a.u.)       :      1.088201771
Magnitude (Debye)      :      2.765989086

Rotational constants in cm-1:             0.050647             0.028411             0.023107
Rotational constants in MHz :          1518.352575           851.754977           692.726934

                             ****ORCA TERMINATED NORMALLY****
TOTAL RUN TIME: 0 days 0 hours 0 minutes 13 seconds 25 msec
