                         Program Version 6.0.0  -   RELEASE  -
|  1> ! pbe def2-sv(p) def2/J RI DEFGRID1 loosescf d4 GCP(DFT/SV(P)) printgap
|  2> %output
|  3>     printlevel normal
|  4> end
|  5> * xyz 0 1
|  6> C -2.4929435984 -0.3025901741 -0.4751393012
|  7> C -1.1774738922 -0.2005585175 0.3074987869
|  8> H -1.3382270332 -0.5417195707 1.3432113136
|  9> C -0.6280592071 1.2468135533 0.3416252967
| 10> H -1.3601993313 1.9261503242 -0.1105146058
| 11> C 0.6642630967 1.3292884025 -0.5012098763
| 12> H 1.0749968946 2.3402592871 -0.4092299671
| 13> C 1.7028644703 0.3343298086 0.0503835257
| 14> H 2.4949194427 0.192841564 -0.6933933852
| 15> C 1.0296123373 -1.0436323494 0.2755914519
| 16> H 0.9260880212 -1.2093069574 1.3669323841
| 17> O -0.258325892 -1.0905841797 -0.3138341769
| 18> O 1.807322634 -2.0143569303 -0.3170594926
| 19> O 2.3304563509 0.8067495688 1.2094461897
| 20> O 0.4024800258 1.1339409152 -1.8641217982
| 21> O -0.3055179285 1.6508250382 1.652769903
| 22> O -3.0475642418 -1.5899113967 -0.4214837331
| 23> H -2.3130904095 0.0066968229 -1.5120249421
| 24> H -3.2339919931 0.3615646047 -0.0274185017
| 25> H 1.4108344477 -2.8917789806 -0.1970840216
| 26> H 1.6519862136 1.1669873899 1.8068964761
| 27> H 0.2062141941 0.1945248355 -2.0096350372
| 28> H -1.0998955389 1.932810127 2.1271453176
| 29> H -2.4183423577 -2.2150936285 -0.8082977633
| 30> *
| 31>
| 32>                          ****END OF INPUT****

CARTESIAN COORDINATES (ANGSTROEM)
---------------------------------
  C     -2.492944   -0.302590   -0.475139
  C     -1.177474   -0.200559    0.307499
  H     -1.338227   -0.541720    1.343211
  C     -0.628059    1.246814    0.341625
  H     -1.360199    1.926150   -0.110515
  C      0.664263    1.329288   -0.501210
  H      1.074997    2.340259   -0.409230
  C      1.702864    0.334330    0.050384
  H      2.494919    0.192842   -0.693393
  C      1.029612   -1.043632    0.275591
  H      0.926088   -1.209307    1.366932
  O     -0.258326   -1.090584   -0.313834
  O      1.807323   -2.014357   -0.317059
  O      2.330456    0.806750    1.209446
  O      0.402480    1.133941   -1.864122
  O     -0.305518    1.650825    1.652770
  O     -3.047564   -1.589911   -0.421484
  H     -2.313090    0.006697   -1.512025
  H     -3.233992    0.361565   -0.027419
  H      1.410834   -2.891779   -0.197084
  H      1.651986    1.166987    1.806896
  H      0.206214    0.194525   -2.009635
  H     -1.099896    1.932810    2.127145
  H     -2.418342   -2.215094   -0.808298

 Total Charge           Charge          ....    0
 Multiplicity           Mult            ....    1
 Number of Electrons    NEL             ....   96
 Basis Dimension        Dim             ....  192

ORBITAL ENERGIES
----------------

  NO   OCC          E(Eh)            E(eV)
   0   2.0000     -18.788460      -511.2600
   1   2.0000     -18.783630      -511.1286
   2   2.0000     -18.768551      -510.7182
   3   2.0000     -18.753330      -510.3041
   4   2.0000     -18.751293      -510.2486
   5   2.0000     -18.737952      -509.8856
   6   2.0000      -9.989963      -271.8407
   7   2.0000      -9.956291      -270.9244
   8   2.0000      -9.953822      -270.8573
   9   2.0000      -9.945027      -270.6179
  10   2.0000      -9.944233      -270.5963
  11   2.0000      -9.934793      -270.3395
  12   2.0000      -0.995352       -27.0849
  13   2.0000      -0.959198       -26.1011
  14   2.0000      -0.937357       -25.5068
  15   2.0000      -0.931318       -25.3425
  16   2.0000      -0.920594       -25.0506
  17   2.0000      -0.914391       -24.8818
  18   2.0000      -0.710138       -19.3238
  19   2.0000      -0.687538       -18.7088
  20   2.0000      -0.628981       -17.1155
  21   2.0000      -0.586346       -15.9553
  22   2.0000      -0.574399       -15.6302
  23   2.0000      -0.526671       -14.3314
  24   2.0000      -0.514623       -14.0036
  25   2.0000      -0.500193       -13.6110
  26   2.0000      -0.489355       -13.3160
  27   2.0000      -0.475864       -12.9489
  28   2.0000      -0.459434       -12.5018
  29   2.0000      -0.434393       -11.8204
  30   2.0000      -0.414052       -11.2669
  31   2.0000      -0.397228       -10.8091
  32   2.0000      -0.389527       -10.5996
  33   2.0000      -0.377831       -10.2813
  34   2.0000      -0.366770        -9.9803
  35   2.0000      -0.355826        -9.6825
  36   2.0000      -0.334845        -9.1116
  37   2.0000      -0.329006        -8.9527
  38   2.0000      -0.311624        -8.4797
  39   2.0000      -0.302288        -8.2257
  40   2.0000      -0.286639        -7.7998
  41   2.0000      -0.270075        -7.3491
  42   2.0000      -0.266465        -7.2509
  43   2.0000      -0.253788        -6.9059
  44   2.0000      -0.245085        -6.6691
  45   2.0000      -0.226788        -6.1712
  46   2.0000      -0.215492        -5.8638
  47   2.0000      -0.202481        -5.5098
  48   0.0000      -0.003436        -0.0935
  49   0.0000       0.017788         0.4840
  50   0.0000       0.032872         0.8945
  51   0.0000       0.047477         1.2919
  52   0.0000       0.055289         1.5045

MULLIKEN ATOMIC CHARGES
-----------------------
   0 C :    0.072739
   1 C :    0.015961
   2 H :    0.057498
   3 C :    0.007528
   4 H :    0.078997
   5 C :    0.027428
   6 H :    0.085263
   7 C :    0.061112
   8 H :    0.085745
   9 C :    0.183554
  10 H :    0.041394
  11 O :   -0.334368
  12 O :   -0.372300
  13 O :   -0.427250
  14 O :   -0.419178
  15 O :   -0.425713
  16 O :   -0.430636
  17 H :    0.076406
  18 H :    0.085695
  19 H :    0.303407
  20 H :    0.304259
  21 H :    0.307335
  22 H :    0.316501
  23 H :    0.298624
Sum of atomic charges:    0.0000000

LOEWDIN ATOMIC CHARGES
----------------------
   0 C :   -0.128619
   1 C :   -0.082665
   2 H :    0.105423
   3 C :   -0.079587
   4 H :    0.111870
   5 C :   -0.071832
   6 H :    0.121887
   7 C :   -0.082737
   8 H :    0.125618
   9 C :   -0.002488
  10 H :    0.084020
  11 O :   -0.171858
  12 O :   -0.285900
  13 O :   -0.315374
  14 O :   -0.311687
  15 O :   -0.313965
  16 O :   -0.333642
  17 H :    0.102125
  18 H :    0.116494
  19 H :    0.287598
  20 H :    0.272511
  21 H :    0.274428
  22 H :    0.296146
  23 H :    0.282233

  Mayer bond orders larger than 0.100000
B(  0-C ,  1-C ) :   1.0416 B(  0-C , 16-O ) :   1.0809 B(  0-C , 17-H ) :   0.9019
B(  0-C , 18-H ) :   0.9195 B(  1-C ,  2-H ) :   0.8765 B(  1-C ,  3-C ) :   0.9416
B(  1-C , 11-O ) :   0.9842 B(  3-C ,  4-H ) :   0.9028 B(  3-C ,  5-C ) :   0.9821
B(  3-C , 15-O ) :   1.0246 B(  5-C ,  6-H ) :   0.8925 B(  5-C ,  7-C ) :   0.9977
B(  5-C , 14-O ) :   1.0588 B(  7-C ,  8-H ) :   0.8859 B(  7-C ,  9-C ) :   0.9622
B(  7-C , 13-O ) :   1.0662 B(  9-C , 10-H ) :   0.8797 B(  9-C , 11-O ) :   0.9904
B(  9-C , 12-O ) :   1.1808 B( 12-O , 19-H ) :   0.8405 B( 13-O , 20-H ) :   0.8174
B( 14-O , 21-H ) :   0.8219 B( 15-O , 22-H ) :   0.8404 B( 16-O , 23-H ) :   0.8455

Dispersion correction           -0.024851355
FINAL SINGLE POINT ENERGY      -685.694243287616

DIPOLE MOMENT
-------------

Method             : SCF
Type of density    : Electron Density
Multiplicity       :   1
Irrep              :   0
Energy             :  -685.8258311000305412 Eh
Relativity type    :
Basis              : AO
                                X                 Y                 Z
Electronic contribution:      2.687292952      -1.405792473      -0.230863123
Nuclear contribution   :     -3.737707386       1.169441439       0.821583803
                        -----------------------------------------
Total Dipole Moment    :     -1.050414434      -0.236351033       0.590720680
                        -----------------------------------------
Magnitude (a.u.)       :      1.228081111
Magnitude (Debye)      :      3.121534113

Rotational constants in cm-1:             0.040674             0.026091             0.021436
Rotational constants in MHz :          1219.383020           782.203052           642.646620

                             ****ORCA TERMINATED NORMALLY****
TOTAL RUN TIME: 0 days 0 hours 0 minutes 12 seconds 82 msec
