                         Program Version 6.0.0  -   RELEASE  -
|  1> ! r2scan-3c def2/J RI DEFGRID2 scfconv6 printgap
|  2> %output
|  3>     printlevel normal
|  4> end
|  5> * xyz 0 1
|  6> C -2.5621278033 -0.9731351716 0.0072899283
|  7> C -1.2382445036 -0.2788435479 -0.0076716163
|  8> C -1.1523704675 1.1106160758 -0.0035409924
|  9> C 0.0995225994 1.698356961 0.0012508488
| 10> N 1.2335313289 1.0166555008 0.0021519934
| 11> C 1.1690739722 -0.3131262102 -0.0011110297
| 12> C -0.0455714556 -0.9907171673 -0.0061432335
| 13> C 2.4733344351 -1.0470750026 0.0017932435
| 14> H -2.9330723044 -1.0277173068 1.0304489132
| 15> H -3.2900102244 -0.4238549885 -0.5846226266
| 16> H -2.4733650024 -1.9852522267 -0.378066666
| 17> H -2.0431176862 1.7192795871 -0.0060023189
| 18> H 0.2096974465 2.7753659354 0.0029406531
| 19> H -0.0583754283 -2.0704991084 -0.010452333
| 20> H 2.314698652 -2.1200557354 -0.0466832893
| 21> H 3.0754527573 -0.7297418042 -0.846153973
| 22> H 3.0279515303 -0.8048194062 0.905603596
| 23> *
| 24>
| 25>                          ****END OF INPUT****

CARTESIAN COORDINATES (ANGSTROEM)
---------------------------------
  C     -2.562128   -0.973135    0.007290
  C     -1.238245   -0.278844   -0.007672
  C     -1.152370    1.110616   -0.003541
  C      0.099523    1.698357    0.001251
  N      1.233531    1.016656    0.002152
  C      1.169074   -0.313126   -0.001111
  C     -0.045571   -0.990717   -0.006143
  C      2.473334   -1.047075    0.001793
  H     -2.933072   -1.027717    1.030449
  H     -3.290010   -0.423855   -0.584623
  H     -2.473365   -1.985252   -0.378067
  H     -2.043118    1.719280   -0.006002
  H      0.209697    2.775366    0.002941
  H     -0.058375   -2.070499   -0.010452
  H      2.314699   -2.120056   -0.046683
  H      3.075453   -0.729742   -0.846154
  H      3.027952   -0.804819    0.905604

 Total Charge           Charge          ....    0
 Multiplicity           Mult            ....    1
 Number of Electrons    NEL             ....   58
 Basis Dimension        Dim             ....  202

ORBITAL ENERGIES
----------------

  NO   OCC          E(Eh)            E(eV)
   0   2.0000     -14.143383      -384.8610
   1   2.0000     -10.070228      -274.0248
   2   2.0000     -10.060529      -273.7609
   3   2.0000     -10.058074      -273.6941
   4   2.0000     -10.036913      -273.1183
   5   2.0000     -10.034033      -273.0399
   6   2.0000     -10.033819      -273.0341
   7   2.0000     -10.022640      -272.7299
   8   2.0000      -0.909079       -24.7373
   9   2.0000      -0.789057       -21.4713
  10   2.0000      -0.748499       -20.3677
  11   2.0000      -0.683153       -18.5895
  12   2.0000      -0.664808       -18.0904
  13   2.0000      -0.591577       -16.0976
  14   2.0000      -0.550268       -14.9736
  15   2.0000      -0.468894       -12.7593
  16   2.0000      -0.464333       -12.6352
  17   2.0000      -0.425496       -11.5783
  18   2.0000      -0.409350       -11.1390
  19   2.0000      -0.392551       -10.6818
  20   2.0000      -0.384082       -10.4514
  21   2.0000      -0.375175       -10.2090
  22   2.0000      -0.362434        -9.8623
  23   2.0000      -0.344150        -9.3648
  24   2.0000      -0.341857        -9.3024
  25   2.0000      -0.318960        -8.6794
  26   2.0000      -0.252932        -6.8826
  27   2.0000      -0.234267        -6.3747
  28   2.0000      -0.217757        -5.9255
  29   0.0000      -0.045733        -1.2445
  30   0.0000      -0.032987        -0.8976
  31   0.0000       0.072640         1.9766
  32   0.0000       0.102412         2.7868
  33   0.0000       0.105524         2.8715

MULLIKEN ATOMIC CHARGES
-----------------------
   0 C :   -0.537969
   1 C :    0.174107
   2 C :   -0.158004
   3 C :   -0.110507
   4 N :   -0.172045
   5 C :    0.266210
   6 C :   -0.274446
   7 C :   -0.587424
   8 H :    0.174057
   9 H :    0.155882
  10 H :    0.153597
  11 H :    0.148701
  12 H :    0.131986
  13 H :    0.152164
  14 H :    0.145778
  15 H :    0.168999
  16 H :    0.168914
Sum of atomic charges:    0.0000000

LOEWDIN ATOMIC CHARGES
----------------------
   0 C :   -0.386890
   1 C :   -0.059812
   2 C :   -0.159969
   3 C :    0.087239
   4 N :   -0.620940
   5 C :    0.130299
   6 C :   -0.150164
   7 C :   -0.360719
   8 H :    0.170769
   9 H :    0.164617
  10 H :    0.162093
  11 H :    0.170385
  12 H :    0.183308
  13 H :    0.169877
  14 H :    0.154314
  15 H :    0.172966
  16 H :    0.172627

  Mayer bond orders larger than 0.100000
B(  0-C ,  1-C ) :   0.8068 B(  0-C ,  8-H ) :   0.9668 B(  0-C ,  9-H ) :   0.9847
B(  0-C , 10-H ) :   0.9895 B(  1-C ,  2-C ) :   1.3486 B(  1-C ,  4-N ) :   0.1043
B(  1-C ,  6-C ) :   1.4237 B(  2-C ,  3-C ) :   1.3759 B(  2-C , 11-H ) :   0.9363
B(  3-C ,  4-N ) :   1.4714 B(  3-C , 12-H ) :   0.9868 B(  4-N ,  5-C ) :   1.3292
B(  5-C ,  6-C ) :   1.4639 B(  5-C ,  7-C ) :   0.8559 B(  6-C , 13-H ) :   0.8917
B(  7-C , 14-H ) :   1.0005 B(  7-C , 15-H ) :   0.9642 B(  7-C , 16-H ) :   0.9603

Dispersion correction           -0.005200605
FINAL SINGLE POINT ENERGY      -326.824989938220

DIPOLE MOMENT
-------------

Method             : SCF
Type of density    : Electron Density
Multiplicity       :   1
Irrep              :   0
Energy             :  -326.8275364612246676 Eh
Relativity type    :
Basis              : AO
                                X                 Y                 Z
Electronic contribution:      1.306376222       3.836065855      -0.038867869
Nuclear contribution   :     -2.029193850      -4.373135026       0.062880307
                        -----------------------------------------
Total Dipole Moment    :     -0.722817628      -0.537069170       0.024012438
                        -----------------------------------------
Magnitude (a.u.)       :      0.900824741
Magnitude (Debye)      :      2.289714525

Rotational constants in cm-1:             0.128199             0.059810             0.041406
Rotational constants in MHz :          3843.309001          1793.053813          1241.332445

                             ****ORCA TERMINATED NORMALLY****
TOTAL RUN TIME: 0 days 0 hours 0 minutes 20 seconds 969 msec
