                         Program Version 6.0.0  -   RELEASE  -
|  1> ! r2scan-3c def2/J RI DEFGRID2 scfconv6 printgap
|  2> %output
|  3>     printlevel normal
|  4> end
|  5> %cpcm
|  6>     smd true
|  7>     smdsolvent "water"
|  8> end
|  9> * xyz 0 1
| 10> C -2.5621278033 -0.9731351716 0.0072899283
| 11> C -1.2382445036 -0.2788435479 -0.0076716163
| 12> C -1.1523704675 1.1106160758 -0.0035409924
| 13> C 0.0995225994 1.698356961 0.0012508488
| 14> N 1.2335313289 1.0166555008 0.0021519934
| 15> C 1.1690739722 -0.3131262102 -0.0011110297
| 16> C -0.0455714556 -0.9907171673 -0.0061432335
| 17> C 2.4733344351 -1.0470750026 0.0017932435
| 18> H -2.9330723044 -1.0277173068 1.0304489132
| 19> H -3.2900102244 -0.4238549885 -0.5846226266
| 20> H -2.4733650024 -1.9852522267 -0.378066666
| 21> H -2.0431176862 1.7192795871 -0.0060023189
| 22> H 0.2096974465 2.7753659354 0.0029406531
| 23> H -0.0583754283 -2.0704991084 -0.010452333
| 24> H 2.314698652 -2.1200557354 -0.0466832893
| 25> H 3.0754527573 -0.7297418042 -0.846153973
| 26> H 3.0279515303 -0.8048194062 0.905603596
| 27> *
| 28>
| 29>                          ****END OF INPUT****

CARTESIAN COORDINATES (ANGSTROEM)
---------------------------------
  C     -2.562128   -0.973135    0.007290
  C     -1.238245   -0.278844   -0.007672
  C     -1.152370    1.110616   -0.003541
  C      0.099523    1.698357    0.001251
  N      1.233531    1.016656    0.002152
  C      1.169074   -0.313126   -0.001111
  C     -0.045571   -0.990717   -0.006143
  C      2.473334   -1.047075    0.001793
  H     -2.933072   -1.027717    1.030449
  H     -3.290010   -0.423855   -0.584623
  H     -2.473365   -1.985252   -0.378067
  H     -2.043118    1.719280   -0.006002
  H      0.209697    2.775366    0.002941
  H     -0.058375   -2.070499   -0.010452
  H      2.314699   -2.120056   -0.046683
  H      3.075453   -0.729742   -0.846154
  H      3.027952   -0.804819    0.905604

 Total Charge           Charge          ....    0
 Multiplicity           Mult            ....    1
 Number of Electrons    NEL             ....   58
 Basis Dimension        Dim             ....  202

ORBITAL ENERGIES
----------------

  NO   OCC          E(Eh)            E(eV)
   0   2.0000     -14.149031      -385.0147
   1   2.0000     -10.071233      -274.0522
   2   2.0000     -10.060753      -273.7670
   3   2.0000     -10.055365      -273.6204
   4   2.0000     -10.030326      -272.9391
   5   2.0000     -10.029953      -272.9289
   6   2.0000     -10.021680      -272.7038
   7   2.0000     -10.017455      -272.5888
   8   2.0000      -0.913182       -24.8489
   9   2.0000      -0.785315       -21.3695
  10   2.0000      -0.747622       -20.3438
  11   2.0000      -0.675270       -18.3750
  12   2.0000      -0.660272       -17.9669
  13   2.0000      -0.590275       -16.0622
  14   2.0000      -0.546020       -14.8580
  15   2.0000      -0.465700       -12.6723
  16   2.0000      -0.460349       -12.5267
  17   2.0000      -0.420032       -11.4296
  18   2.0000      -0.405646       -11.0382
  19   2.0000      -0.383775       -10.4431
  20   2.0000      -0.378874       -10.3097
  21   2.0000      -0.364981        -9.9316
  22   2.0000      -0.354024        -9.6335
  23   2.0000      -0.341463        -9.2917
  24   2.0000      -0.339030        -9.2255
  25   2.0000      -0.313440        -8.5291
  26   2.0000      -0.253355        -6.8941
  27   2.0000      -0.234774        -6.3885
  28   2.0000      -0.226760        -6.1705
  29   0.0000      -0.046756        -1.2723
  30   0.0000      -0.033238        -0.9045
  31   0.0000       0.078479         2.1355
  32   0.0000       0.105405         2.8682
  33   0.0000       0.113766         3.0957

MULLIKEN ATOMIC CHARGES
-----------------------
   0 C :   -0.560938
   1 C :    0.163117
   2 C :   -0.186334
   3 C :   -0.128079
   4 N :   -0.225689
   5 C :    0.256974
   6 C :   -0.288918
   7 C :   -0.635476
   8 H :    0.191838
   9 H :    0.174263
  10 H :    0.173093
  11 H :    0.183116
  12 H :    0.158006
  13 H :    0.187384
  14 H :    0.172731
  15 H :    0.181587
  16 H :    0.183324
Sum of atomic charges:    0.0000000

LOEWDIN ATOMIC CHARGES
----------------------
   0 C :   -0.389255
   1 C :   -0.056827
   2 C :   -0.160198
   3 C :    0.075721
   4 N :   -0.669402
   5 C :    0.121986
   6 C :   -0.148958
   7 C :   -0.367870
   8 H :    0.178723
   9 H :    0.171623
  10 H :    0.168998
  11 H :    0.183326
  12 H :    0.191884
  13 H :    0.183795
  14 H :    0.165328
  15 H :    0.175313
  16 H :    0.175813

  Mayer bond orders larger than 0.100000
B(  0-C ,  1-C ) :   0.8243 B(  0-C ,  8-H ) :   0.9577 B(  0-C ,  9-H ) :   0.9764
B(  0-C , 10-H ) :   0.9824 B(  1-C ,  2-C ) :   1.3242 B(  1-C ,  4-N ) :   0.1010
B(  1-C ,  6-C ) :   1.4007 B(  2-C ,  3-C ) :   1.3834 B(  2-C , 11-H ) :   0.9407
B(  3-C ,  4-N ) :   1.4557 B(  3-C , 12-H ) :   0.9755 B(  4-N ,  5-C ) :   1.3195
B(  5-C ,  6-C ) :   1.4576 B(  5-C ,  7-C ) :   0.8506 B(  6-C , 13-H ) :   0.9015
B(  7-C , 14-H ) :   0.9871 B(  7-C , 15-H ) :   0.9631 B(  7-C , 16-H ) :   0.9580

Dispersion correction           -0.005200605
FINAL SINGLE POINT ENERGY      -326.831443142032

DIPOLE MOMENT
-------------

Method             : SCF
Type of density    : Electron Density
Multiplicity       :   1
Irrep              :   0
Energy             :  -326.8339896650372225 Eh
Relativity type    :
Basis              : AO
                                X                 Y                 Z
Electronic contribution:      0.941494045       3.565162502      -0.028634162
Nuclear contribution   :     -2.029193850      -4.373135026       0.062880307
                        -----------------------------------------
Total Dipole Moment    :     -1.087699805      -0.807972524       0.034246145
                        -----------------------------------------
Magnitude (a.u.)       :      1.355390447
Magnitude (Debye)      :      3.445128728

Rotational constants in cm-1:             0.128199             0.059810             0.041406
Rotational constants in MHz :          3843.309001          1793.053813          1241.332445

                             ****ORCA TERMINATED NORMALLY****
TOTAL RUN TIME: 0 days 0 hours 0 minutes 29 seconds 568 msec
