                         Program Version 6.0.0  -   RELEASE  -
|  1> ! pbe def2-sv(p) def2/J RI DEFGRID1 loosescf d4 GCP(DFT/SV(P)) printgap
|  2> %output
|  3>     printlevel normal
|  4> end
|  5> * xyz 0 1
|  6> C 2.8534884093 0.7154734732 -0.2516335699
|  7> C 1.9964197215 -0.4659390135 0.1935843377
|  8> C 0.5158200225 -0.2337460262 0.0943523094
|  9> C -0.0685886776 1.0168895685 0.2663873745
| 10> C -1.4454998919 1.1360601871 0.1758840345
| 11> N -2.2603344629 0.1202049122 -0.0652841052
| 12> C -1.7068090919 -1.0733333015 -0.2261200697
| 13> C -0.3438409562 -1.3005093112 -0.1582413082
| 14> H 2.5645088784 1.0418040039 -1.2479618155
| 15> H 3.8992364484 0.4205157787 -0.2751629442
| 16> H 2.757089451 1.5546161126 0.4318024734
| 17> H 2.2315722406 -0.7077005958 1.234647012
| 18> H 2.2487525616 -1.3431930129 -0.405926034
| 19> H 0.5286960882 1.890701173 0.4671728102
| 20> H -1.9284691242 2.096039413 0.3024308004
| 21> H -2.3981127916 -1.8824170716 -0.4214453469
| 22> H 0.0462662877 -2.2966431218 -0.3010334585
| 23> *
| 24>
| 25>                          ****END OF INPUT****

CARTESIAN COORDINATES (ANGSTROEM)
---------------------------------
  C      2.853488    0.715473   -0.251634
  C      1.996420   -0.465939    0.193584
  C      0.515820   -0.233746    0.094352
  C     -0.068589    1.016890    0.266387
  C     -1.445500    1.136060    0.175884
  N     -2.260334    0.120205   -0.065284
  C     -1.706809   -1.073333   -0.226120
  C     -0.343841   -1.300509   -0.158241
  H      2.564509    1.041804   -1.247962
  H      3.899236    0.420516   -0.275163
  H      2.757089    1.554616    0.431802
  H      2.231572   -0.707701    1.234647
  H      2.248753   -1.343193   -0.405926
  H      0.528696    1.890701    0.467173
  H     -1.928469    2.096039    0.302431
  H     -2.398113   -1.882417   -0.421445
  H      0.046266   -2.296643   -0.301033

 Total Charge           Charge          ....    0
 Multiplicity           Mult            ....    1
 Number of Electrons    NEL             ....   58
 Basis Dimension        Dim             ....  130

ORBITAL ENERGIES
----------------

  NO   OCC          E(Eh)            E(eV)
   0   2.0000     -13.973334      -380.2338
   1   2.0000      -9.919413      -269.9210
   2   2.0000      -9.917457      -269.8677
   3   2.0000      -9.916849      -269.8512
   4   2.0000      -9.903658      -269.4922
   5   2.0000      -9.898134      -269.3419
   6   2.0000      -9.897008      -269.3113
   7   2.0000      -9.888499      -269.0797
   8   2.0000      -0.853303       -23.2196
   9   2.0000      -0.749728       -20.4011
  10   2.0000      -0.683122       -18.5887
  11   2.0000      -0.679158       -18.4808
  12   2.0000      -0.588607       -16.0168
  13   2.0000      -0.564393       -15.3579
  14   2.0000      -0.528198       -14.3730
  15   2.0000      -0.459960       -12.5161
  16   2.0000      -0.440334       -11.9821
  17   2.0000      -0.415781       -11.3140
  18   2.0000      -0.410420       -11.1681
  19   2.0000      -0.383220       -10.4280
  20   2.0000      -0.373947       -10.1756
  21   2.0000      -0.358753        -9.7622
  22   2.0000      -0.341832        -9.3017
  23   2.0000      -0.325832        -8.8663
  24   2.0000      -0.316318        -8.6075
  25   2.0000      -0.304648        -8.2899
  26   2.0000      -0.248170        -6.7530
  27   2.0000      -0.238278        -6.4839
  28   2.0000      -0.199450        -5.4273
  29   0.0000      -0.050782        -1.3818
  30   0.0000      -0.042486        -1.1561
  31   0.0000       0.037779         1.0280
  32   0.0000       0.059252         1.6123
  33   0.0000       0.064320         1.7502

MULLIKEN ATOMIC CHARGES
-----------------------
   0 C :   -0.289689
   1 C :   -0.131771
   2 C :    0.070115
   3 C :   -0.129472
   4 C :   -0.052965
   5 N :   -0.062357
   6 C :   -0.051889
   7 C :   -0.122804
   8 H :    0.112974
   9 H :    0.108593
  10 H :    0.116052
  11 H :    0.113296
  12 H :    0.092802
  13 H :    0.048807
  14 H :    0.065147
  15 H :    0.065406
  16 H :    0.047754
Sum of atomic charges:    0.0000000

LOEWDIN ATOMIC CHARGES
----------------------
   0 C :   -0.338402
   1 C :   -0.220030
   2 C :   -0.019749
   3 C :   -0.146118
   4 C :   -0.079130
   5 N :   -0.082977
   6 C :   -0.079770
   7 C :   -0.143485
   8 H :    0.123781
   9 H :    0.124269
  10 H :    0.120287
  11 H :    0.136992
  12 H :    0.125765
  13 H :    0.126305
  14 H :    0.113601
  15 H :    0.113632
  16 H :    0.125028

  Mayer bond orders larger than 0.100000
B(  0-C ,  1-C ) :   1.1647 B(  0-C ,  8-H ) :   0.9578 B(  0-C ,  9-H ) :   0.9485
B(  0-C , 10-H ) :   0.9415 B(  1-C ,  2-C ) :   1.0716 B(  1-C , 11-H ) :   0.8955
B(  1-C , 12-H ) :   0.9136 B(  2-C ,  3-C ) :   1.4139 B(  2-C ,  7-C ) :   1.4104
B(  3-C ,  4-C ) :   1.3756 B(  3-C , 13-H ) :   0.9409 B(  4-C ,  5-N ) :   1.5519
B(  4-C , 14-H ) :   0.9508 B(  5-N ,  6-C ) :   1.5420 B(  6-C ,  7-C ) :   1.3861
B(  6-C , 15-H ) :   0.9513 B(  7-C , 16-H ) :   0.9436

Dispersion correction           -0.016239511
FINAL SINGLE POINT ENERGY      -326.176692486950

DIPOLE MOMENT
-------------

Method             : SCF
Type of density    : Electron Density
Multiplicity       :   1
Irrep              :   0
Energy             :  -326.2262220940851876 Eh
Relativity type    :
Basis              : AO
                                X                 Y                 Z
Electronic contribution:     -8.276510265      -0.846694331       0.281462523
Nuclear contribution   :      9.321951957       0.726541353      -0.202511227
                        -----------------------------------------
Total Dipole Moment    :      1.045441693      -0.120152978       0.078951296
                        -----------------------------------------
Magnitude (a.u.)       :      1.055281184
Magnitude (Debye)      :      2.682311603

Rotational constants in cm-1:             0.167664             0.049594             0.039460
Rotational constants in MHz :          5026.427759          1486.783367          1182.983867

                             ****ORCA TERMINATED NORMALLY****
TOTAL RUN TIME: 0 days 0 hours 0 minutes 7 seconds 155 msec
