                         Program Version 6.0.0  -   RELEASE  -
|  1> ! pbe def2-sv(p) def2/J RI DEFGRID1 loosescf d4 GCP(DFT/SV(P)) printgap
|  2> %output
|  3>     printlevel normal
|  4> end
|  5> * xyz 0 1
|  6> C 3.7245038228 0.1671689665 0.0815650389
|  7> C 2.2551744968 0.3167136214 -0.3021689718
|  8> H 2.1925813197 0.5215715847 -1.3773190737
|  9> C 1.601264948 1.4727609966 0.4519019059
| 10> C 0.1257127048 1.593553685 0.0869885821
| 11> C -0.6456828012 0.3055814382 0.3969985324
| 12> H -0.5181471992 0.0781292026 1.4614795802
| 13> C 0.0062919881 -0.8474003476 -0.3897734427
| 14> H -0.056455059 -0.6307350098 -1.4657340705
| 15> C 1.484343054 -0.9672487423 -0.0092666555
| 16> O -0.5783710425 -2.1146086267 -0.1258610368
| 17> C -2.1589632475 0.5064259067 0.1498317665
| 18> C -2.5706422472 0.3593338742 -1.315137386
| 19> C -3.0013586206 -0.4039406639 1.0462076332
| 20> H 4.2700337036 1.081474074 -0.1391200087
| 21> H 3.8182326965 -0.0418503207 1.1447829087
| 22> H 4.1820176283 -0.6501764572 -0.4703426161
| 23> H 1.6964928405 1.2988250212 1.5259950192
| 24> H 2.1150928559 2.4068626962 0.2164974571
| 25> H -0.3176910201 2.4208321336 0.6447014116
| 26> H 0.035671025 1.8225605397 -0.9773375065
| 27> H 1.5458117162 -1.2087780346 1.0538046865
| 28> H 1.9118705933 -1.8061106816 -0.5621132765
| 29> H -1.3972226718 -2.1993964623 -0.6296028627
| 30> H -2.3842724248 1.5395433434 0.4425471796
| 31> H -2.5043789114 -0.6720991364 -1.652196055
| 32> H -1.9459669739 0.9755830526 -1.9569092856
| 33> H -3.6021211817 0.6823412531 -1.4378548599
| 34> H -2.8415006343 -0.1518541429 2.0923255539
| 35> H -2.7399397867 -1.449277794 0.911767493
| 36> H -4.058547452 -0.2774388997 0.8231732383
| 37> *
| 38>
| 39>                          ****END OF INPUT****

CARTESIAN COORDINATES (ANGSTROEM)
---------------------------------
  C      3.724504    0.167169    0.081565
  C      2.255174    0.316714   -0.302169
  H      2.192581    0.521572   -1.377319
  C      1.601265    1.472761    0.451902
  C      0.125713    1.593554    0.086989
  C     -0.645683    0.305581    0.396999
  H     -0.518147    0.078129    1.461480
  C      0.006292   -0.847400   -0.389773
  H     -0.056455   -0.630735   -1.465734
  C      1.484343   -0.967249   -0.009267
  O     -0.578371   -2.114609   -0.125861
  C     -2.158963    0.506426    0.149832
  C     -2.570642    0.359334   -1.315137
  C     -3.001359   -0.403941    1.046208
  H      4.270034    1.081474   -0.139120
  H      3.818233   -0.041850    1.144783
  H      4.182018   -0.650176   -0.470343
  H      1.696493    1.298825    1.525995
  H      2.115093    2.406863    0.216497
  H     -0.317691    2.420832    0.644701
  H      0.035671    1.822561   -0.977338
  H      1.545812   -1.208778    1.053805
  H      1.911871   -1.806111   -0.562113
  H     -1.397223   -2.199396   -0.629603
  H     -2.384272    1.539543    0.442547
  H     -2.504379   -0.672099   -1.652196
  H     -1.945967    0.975583   -1.956909
  H     -3.602121    0.682341   -1.437855
  H     -2.841501   -0.151854    2.092326
  H     -2.739940   -1.449278    0.911767
  H     -4.058547   -0.277439    0.823173

 Total Charge           Charge          ....    0
 Multiplicity           Mult            ....    1
 Number of Electrons    NEL             ....   88
 Basis Dimension        Dim             ....  194

ORBITAL ENERGIES
----------------

  NO   OCC          E(Eh)            E(eV)
   0   2.0000     -18.739096      -509.9167
   1   2.0000      -9.932082      -270.2657
   2   2.0000      -9.893785      -269.2236
   3   2.0000      -9.891074      -269.1498
   4   2.0000      -9.885914      -269.0094
   5   2.0000      -9.881494      -268.8891
   6   2.0000      -9.879477      -268.8342
   7   2.0000      -9.879119      -268.8245
   8   2.0000      -9.874132      -268.6888
   9   2.0000      -9.869895      -268.5735
  10   2.0000      -9.869061      -268.5508
  11   2.0000      -0.915923       -24.9235
  12   2.0000      -0.758665       -20.6443
  13   2.0000      -0.722752       -19.6671
  14   2.0000      -0.670904       -18.2562
  15   2.0000      -0.655785       -17.8448
  16   2.0000      -0.613811       -16.7026
  17   2.0000      -0.600482       -16.3399
  18   2.0000      -0.539847       -14.6900
  19   2.0000      -0.532411       -14.4876
  20   2.0000      -0.506046       -13.7702
  21   2.0000      -0.492435       -13.3998
  22   2.0000      -0.453286       -12.3345
  23   2.0000      -0.422048       -11.4845
  24   2.0000      -0.410410       -11.1678
  25   2.0000      -0.403765       -10.9870
  26   2.0000      -0.394798       -10.7430
  27   2.0000      -0.369975       -10.0675
  28   2.0000      -0.368195       -10.0191
  29   2.0000      -0.364181        -9.9099
  30   2.0000      -0.347805        -9.4643
  31   2.0000      -0.343837        -9.3563
  32   2.0000      -0.330495        -8.9932
  33   2.0000      -0.324693        -8.8354
  34   2.0000      -0.314655        -8.5622
  35   2.0000      -0.307968        -8.3802
  36   2.0000      -0.302095        -8.2204
  37   2.0000      -0.287986        -7.8365
  38   2.0000      -0.282487        -7.6869
  39   2.0000      -0.281273        -7.6538
  40   2.0000      -0.268625        -7.3096
  41   2.0000      -0.263133        -7.1602
  42   2.0000      -0.252451        -6.8695
  43   2.0000      -0.207254        -5.6397
  44   0.0000       0.017795         0.4842
  45   0.0000       0.037279         1.0144
  46   0.0000       0.041832         1.1383
  47   0.0000       0.050014         1.3610
  48   0.0000       0.076433         2.0798

MULLIKEN ATOMIC CHARGES
-----------------------
   0 C :   -0.196042
   1 C :   -0.214946
   2 H :    0.061392
   3 C :   -0.091753
   4 C :   -0.110107
   5 C :   -0.134594
   6 H :    0.053946
   7 C :    0.028783
   8 H :    0.049048
   9 C :   -0.074081
  10 O :   -0.404343
  11 C :   -0.131618
  12 C :   -0.253804
  13 C :   -0.230861
  14 H :    0.094327
  15 H :    0.090334
  16 H :    0.096243
  17 H :    0.065842
  18 H :    0.076298
  19 H :    0.078082
  20 H :    0.070403
  21 H :    0.070589
  22 H :    0.079531
  23 H :    0.306074
  24 H :    0.063231
  25 H :    0.076360
  26 H :    0.107716
  27 H :    0.103765
  28 H :    0.098141
  29 H :    0.079869
  30 H :    0.092173
Sum of atomic charges:   -0.0000000

LOEWDIN ATOMIC CHARGES
----------------------
   0 C :   -0.326062
   1 C :   -0.153003
   2 H :    0.112398
   3 C :   -0.215898
   4 C :   -0.215092
   5 C :   -0.147227
   6 H :    0.117294
   7 C :   -0.045748
   8 H :    0.097426
   9 C :   -0.213877
  10 O :   -0.323387
  11 C :   -0.150111
  12 C :   -0.330206
  13 C :   -0.333636
  14 H :    0.116476
  15 H :    0.117103
  16 H :    0.117599
  17 H :    0.114460
  18 H :    0.114960
  19 H :    0.115808
  20 H :    0.112907
  21 H :    0.118530
  22 H :    0.118241
  23 H :    0.276636
  24 H :    0.115486
  25 H :    0.104725
  26 H :    0.118054
  27 H :    0.121864
  28 H :    0.118684
  29 H :    0.111580
  30 H :    0.114015

  Mayer bond orders larger than 0.100000
B(  0-C ,  1-C ) :   1.1144 B(  0-C , 14-H ) :   0.9488 B(  0-C , 15-H ) :   0.9461
B(  0-C , 16-H ) :   0.9486 B(  1-C ,  2-H ) :   0.8909 B(  1-C ,  3-C ) :   1.0925
B(  1-C ,  9-C ) :   1.0832 B(  3-C ,  4-C ) :   1.1464 B(  3-C , 17-H ) :   0.9027
B(  3-C , 18-H ) :   0.9116 B(  4-C ,  5-C ) :   1.0749 B(  4-C , 19-H ) :   0.9058
B(  4-C , 20-H ) :   0.8966 B(  5-C ,  6-H ) :   0.8784 B(  5-C ,  7-C ) :   1.0180
B(  5-C , 11-C ) :   1.0105 B(  7-C ,  8-H ) :   0.8860 B(  7-C ,  9-C ) :   1.0979
B(  7-C , 10-O ) :   1.1012 B(  9-C , 21-H ) :   0.8949 B(  9-C , 22-H ) :   0.9065
B( 10-O , 23-H ) :   0.8308 B( 11-C , 12-C ) :   1.1201 B( 11-C , 13-C ) :   1.1161
B( 11-C , 24-H ) :   0.8941 B( 12-C , 25-H ) :   0.9324 B( 12-C , 26-H ) :   0.9448
B( 12-C , 27-H ) :   0.9438 B( 13-C , 28-H ) :   0.9471 B( 13-C , 29-H ) :   0.9320
B( 13-C , 30-H ) :   0.9476

Dispersion correction           -0.031666442
FINAL SINGLE POINT ENERGY      -467.198543733603

DIPOLE MOMENT
-------------

Method             : SCF
Type of density    : Electron Density
Multiplicity       :   1
Irrep              :   0
Energy             :  -467.3110413976928612 Eh
Relativity type    :
Basis              : AO
                                X                 Y                 Z
Electronic contribution:      0.329470957      -3.055069605      -0.013789958
Nuclear contribution   :     -0.570015607       3.477365229      -0.331590097
                        -----------------------------------------
Total Dipole Moment    :     -0.240544650       0.422295624      -0.345380054
                        -----------------------------------------
Magnitude (a.u.)       :      0.596223704
Magnitude (Debye)      :      1.515480217

Rotational constants in cm-1:             0.065190             0.022626             0.019491
Rotational constants in MHz :          1954.348416           678.315645           584.338222

                             ****ORCA TERMINATED NORMALLY****
TOTAL RUN TIME: 0 days 0 hours 0 minutes 14 seconds 322 msec
