                         Program Version 6.0.0  -   RELEASE  -
|  1> ! r2scan-3c def2/J RI DEFGRID2 scfconv6 printgap
|  2> %output
|  3>     printlevel normal
|  4> end
|  5> * xyz 0 1
|  6> C -2.107039723 -0.5597115492 -0.7079500941
|  7> C -1.3594252808 -0.3144481455 0.6063304777
|  8> C -0.0086174765 0.2790235806 0.3061528529
|  9> O 0.2620656096 1.4610875548 0.3524881079
| 10> O 0.867117185 -0.6523843753 -0.0528753857
| 11> C 2.1810057059 -0.2217379106 -0.4161168804
| 12> H -1.553925139 -1.2581887026 -1.3304156922
| 13> H -3.088147082 -0.9749387202 -0.4987827654
| 14> H -2.2308189997 0.3738381688 -1.2518107997
| 15> H -1.2196179767 -1.258135476 1.1317741542
| 16> H -1.9136856905 0.3857880651 1.229991491
| 17> H 2.6283127146 0.3419278741 0.4035351493
| 18> H 2.1330579997 0.4157235887 -1.2997922451
| 19> H 2.7412659162 -1.1288871193 -0.6191048427
| 20> *
| 21>
| 22>                          ****END OF INPUT****

CARTESIAN COORDINATES (ANGSTROEM)
---------------------------------
  C     -2.107040   -0.559712   -0.707950
  C     -1.359425   -0.314448    0.606330
  C     -0.008617    0.279024    0.306153
  O      0.262066    1.461088    0.352488
  O      0.867117   -0.652384   -0.052875
  C      2.181006   -0.221738   -0.416117
  H     -1.553925   -1.258189   -1.330416
  H     -3.088147   -0.974939   -0.498783
  H     -2.230819    0.373838   -1.251811
  H     -1.219618   -1.258135    1.131774
  H     -1.913686    0.385788    1.229991
  H      2.628313    0.341928    0.403535
  H      2.133058    0.415724   -1.299792
  H      2.741266   -1.128887   -0.619105

 Total Charge           Charge          ....    0
 Multiplicity           Mult            ....    1
 Number of Electrons    NEL             ....   48
 Basis Dimension        Dim             ....  164

ORBITAL ENERGIES
----------------

  NO   OCC          E(Eh)            E(eV)
   0   2.0000     -18.999822      -517.0114
   1   2.0000     -18.929160      -515.0886
   2   2.0000     -10.152198      -276.2553
   3   2.0000     -10.087481      -274.4943
   4   2.0000     -10.044874      -273.3349
   5   2.0000     -10.032797      -273.0063
   6   2.0000      -1.074098       -29.2277
   7   2.0000      -0.975915       -26.5560
   8   2.0000      -0.762646       -20.7527
   9   2.0000      -0.695657       -18.9298
  10   2.0000      -0.613906       -16.7052
  11   2.0000      -0.534965       -14.5571
  12   2.0000      -0.471103       -12.8194
  13   2.0000      -0.452274       -12.3070
  14   2.0000      -0.447956       -12.1895
  15   2.0000      -0.409804       -11.1513
  16   2.0000      -0.400694       -10.9034
  17   2.0000      -0.379882       -10.3371
  18   2.0000      -0.351177        -9.5560
  19   2.0000      -0.332087        -9.0366
  20   2.0000      -0.328466        -8.9380
  21   2.0000      -0.319518        -8.6945
  22   2.0000      -0.274531        -7.4704
  23   2.0000      -0.234610        -6.3841
  24   0.0000      -0.016073        -0.4374
  25   0.0000       0.063286         1.7221
  26   0.0000       0.094952         2.5838
  27   0.0000       0.121911         3.3174
  28   0.0000       0.125338         3.4106

MULLIKEN ATOMIC CHARGES
-----------------------
   0 C :   -0.470321
   1 C :   -0.286073
   2 C :    0.402563
   3 O :   -0.420688
   4 O :   -0.190565
   5 C :   -0.291718
   6 H :    0.157476
   7 H :    0.153434
   8 H :    0.158002
   9 H :    0.152443
  10 H :    0.162547
  11 H :    0.163692
  12 H :    0.159072
  13 H :    0.150136
Sum of atomic charges:   -0.0000000

LOEWDIN ATOMIC CHARGES
----------------------
   0 C :   -0.392161
   1 C :   -0.236614
   2 C :    0.350017
   3 O :   -0.421768
   4 O :   -0.604523
   5 C :   -0.044169
   6 H :    0.158344
   7 H :    0.153236
   8 H :    0.159036
   9 H :    0.174297
  10 H :    0.174687
  11 H :    0.178014
  12 H :    0.175632
  13 H :    0.175972

  Mayer bond orders larger than 0.100000
B(  0-C ,  1-C ) :   0.8969 B(  0-C ,  6-H ) :   0.9770 B(  0-C ,  7-H ) :   0.9704
B(  0-C ,  8-H ) :   0.9739 B(  1-C ,  2-C ) :   0.9571 B(  1-C ,  9-H ) :   0.9694
B(  1-C , 10-H ) :   0.9738 B(  2-C ,  3-O ) :   1.8269 B(  2-C ,  4-O ) :   1.0463
B(  4-O ,  5-C ) :   0.8528 B(  5-C , 11-H ) :   0.9637 B(  5-C , 12-H ) :   0.9609
B(  5-C , 13-H ) :   0.9691

Dispersion correction           -0.003007448
FINAL SINGLE POINT ENERGY      -307.631761071709

DIPOLE MOMENT
-------------

Method             : SCF
Type of density    : Electron Density
Multiplicity       :   1
Irrep              :   0
Energy             :  -307.6380641046411029 Eh
Relativity type    :
Basis              : AO
                                X                 Y                 Z
Electronic contribution:      2.384663085       2.097644645       1.902896869
Nuclear contribution   :     -2.331998476      -2.899019305      -2.091996688
                        -----------------------------------------
Total Dipole Moment    :      0.052664609      -0.801374659      -0.189099819
                        -----------------------------------------
Magnitude (a.u.)       :      0.825065844
Magnitude (Debye)      :      2.097150712

Rotational constants in cm-1:             0.220899             0.081567             0.068259
Rotational constants in MHz :          6622.378544          2445.313305          2046.346004

                             ****ORCA TERMINATED NORMALLY****
TOTAL RUN TIME: 0 days 0 hours 0 minutes 16 seconds 663 msec
