                         Program Version 6.0.0  -   RELEASE  -
|  1> ! r2scan-3c def2/J RI DEFGRID2 scfconv6 printgap
|  2> %output
|  3>     printlevel normal
|  4> end
|  5> %cpcm
|  6>     smd true
|  7>     smdsolvent "water"
|  8> end
|  9> * xyz 0 1
| 10> C -2.107039723 -0.5597115492 -0.7079500941
| 11> C -1.3594252808 -0.3144481455 0.6063304777
| 12> C -0.0086174765 0.2790235806 0.3061528529
| 13> O 0.2620656096 1.4610875548 0.3524881079
| 14> O 0.867117185 -0.6523843753 -0.0528753857
| 15> C 2.1810057059 -0.2217379106 -0.4161168804
| 16> H -1.553925139 -1.2581887026 -1.3304156922
| 17> H -3.088147082 -0.9749387202 -0.4987827654
| 18> H -2.2308189997 0.3738381688 -1.2518107997
| 19> H -1.2196179767 -1.258135476 1.1317741542
| 20> H -1.9136856905 0.3857880651 1.229991491
| 21> H 2.6283127146 0.3419278741 0.4035351493
| 22> H 2.1330579997 0.4157235887 -1.2997922451
| 23> H 2.7412659162 -1.1288871193 -0.6191048427
| 24> *
| 25>
| 26>                          ****END OF INPUT****

CARTESIAN COORDINATES (ANGSTROEM)
---------------------------------
  C     -2.107040   -0.559712   -0.707950
  C     -1.359425   -0.314448    0.606330
  C     -0.008617    0.279024    0.306153
  O      0.262066    1.461088    0.352488
  O      0.867117   -0.652384   -0.052875
  C      2.181006   -0.221738   -0.416117
  H     -1.553925   -1.258189   -1.330416
  H     -3.088147   -0.974939   -0.498783
  H     -2.230819    0.373838   -1.251811
  H     -1.219618   -1.258135    1.131774
  H     -1.913686    0.385788    1.229991
  H      2.628313    0.341928    0.403535
  H      2.133058    0.415724   -1.299792
  H      2.741266   -1.128887   -0.619105

 Total Charge           Charge          ....    0
 Multiplicity           Mult            ....    1
 Number of Electrons    NEL             ....   48
 Basis Dimension        Dim             ....  164

ORBITAL ENERGIES
----------------

  NO   OCC          E(Eh)            E(eV)
   0   2.0000     -19.004572      -517.1407
   1   2.0000     -18.944664      -515.5105
   2   2.0000     -10.162088      -276.5245
   3   2.0000     -10.076710      -274.2012
   4   2.0000     -10.038138      -273.1516
   5   2.0000     -10.022486      -272.7257
   6   2.0000      -1.080457       -29.4007
   7   2.0000      -0.989239       -26.9186
   8   2.0000      -0.757473       -20.6119
   9   2.0000      -0.689189       -18.7538
  10   2.0000      -0.606434       -16.5019
  11   2.0000      -0.532651       -14.4942
  12   2.0000      -0.470420       -12.8008
  13   2.0000      -0.457982       -12.4623
  14   2.0000      -0.450131       -12.2487
  15   2.0000      -0.409363       -11.1393
  16   2.0000      -0.393941       -10.7197
  17   2.0000      -0.376829       -10.2540
  18   2.0000      -0.345267        -9.3952
  19   2.0000      -0.328823        -8.9477
  20   2.0000      -0.321526        -8.7492
  21   2.0000      -0.319714        -8.6999
  22   2.0000      -0.281038        -7.6474
  23   2.0000      -0.250585        -6.8188
  24   0.0000      -0.023620        -0.6427
  25   0.0000       0.068983         1.8771
  26   0.0000       0.103207         2.8084
  27   0.0000       0.132365         3.6018
  28   0.0000       0.136559         3.7160

MULLIKEN ATOMIC CHARGES
-----------------------
   0 C :   -0.491716
   1 C :   -0.303289
   2 C :    0.445367
   3 O :   -0.507803
   4 O :   -0.203642
   5 C :   -0.326852
   6 H :    0.166375
   7 H :    0.172638
   8 H :    0.164640
   9 H :    0.175770
  10 H :    0.174151
  11 H :    0.177829
  12 H :    0.178137
  13 H :    0.178395
Sum of atomic charges:   -0.0000000

LOEWDIN ATOMIC CHARGES
----------------------
   0 C :   -0.393639
   1 C :   -0.233984
   2 C :    0.360134
   3 O :   -0.484421
   4 O :   -0.604999
   5 C :   -0.041879
   6 H :    0.161164
   7 H :    0.160549
   8 H :    0.160741
   9 H :    0.184116
  10 H :    0.179373
  11 H :    0.182665
  12 H :    0.181892
  13 H :    0.188289

  Mayer bond orders larger than 0.100000
B(  0-C ,  1-C ) :   0.8882 B(  0-C ,  6-H ) :   0.9733 B(  0-C ,  7-H ) :   0.9655
B(  0-C ,  8-H ) :   0.9708 B(  1-C ,  2-C ) :   0.9565 B(  1-C ,  9-H ) :   0.9603
B(  1-C , 10-H ) :   0.9701 B(  2-C ,  3-O ) :   1.7578 B(  2-C ,  4-O ) :   1.0742
B(  4-O ,  5-C ) :   0.8330 B(  5-C , 11-H ) :   0.9584 B(  5-C , 12-H ) :   0.9554
B(  5-C , 13-H ) :   0.9593

Dispersion correction           -0.003007448
FINAL SINGLE POINT ENERGY      -307.637082919707

DIPOLE MOMENT
-------------

Method             : SCF
Type of density    : Electron Density
Multiplicity       :   1
Irrep              :   0
Energy             :  -307.6433859526388801 Eh
Relativity type    :
Basis              : AO
                                X                 Y                 Z
Electronic contribution:      2.381299721       1.766072844       1.853318061
Nuclear contribution   :     -2.331998476      -2.899019305      -2.091996688
                        -----------------------------------------
Total Dipole Moment    :      0.049301245      -1.132946461      -0.238678627
                        -----------------------------------------
Magnitude (a.u.)       :      1.158864005
Magnitude (Debye)      :      2.945598211

Rotational constants in cm-1:             0.220899             0.081567             0.068259
Rotational constants in MHz :          6622.378544          2445.313305          2046.346004

                             ****ORCA TERMINATED NORMALLY****
TOTAL RUN TIME: 0 days 0 hours 0 minutes 21 seconds 267 msec
