                         Program Version 6.0.0  -   RELEASE  -
|  1> ! pbe def2-sv(p) def2/J RI DEFGRID1 loosescf d4 GCP(DFT/SV(P)) printgap
|  2> %output
|  3>     printlevel normal
|  4> end
|  5> * xyz 0 1
|  6> C -2.7008883538 0.8449041967 1.3611129844
|  7> C -1.6135482061 0.4692314887 0.4077274434
|  8> C -0.8572567088 1.3403285327 -0.2480352389
|  9> C 0.2021692632 0.888882016 -1.2036410675
| 10> C 0.9887780766 -0.3402127488 -0.6945960145
| 11> H 1.337128305 -0.8941479099 -1.5712217548
| 12> C 0.1401551973 -1.2912493621 0.1808330335
| 13> C -1.3700823816 -1.0040268029 0.1747736046
| 14> H -1.840855361 -1.5933395581 0.9702854206
| 15> O -2.0060048131 -1.4749377482 -1.0057543614
| 16> C 2.2124730205 0.0895275188 0.0825935828
| 17> C 3.4074996137 -0.4081024245 -0.1952850227
| 18> C 2.0096359882 1.0946496281 1.1761949909
| 19> H -2.8093169355 1.9245106606 1.4205811568
| 20> H -2.4825815706 0.4547833296 2.3547581612
| 21> H -3.6438440241 0.4085740881 1.033777319
| 22> H -0.9975211553 2.4038396613 -0.1193047336
| 23> H -0.2653988169 0.6379461733 -2.1610349679
| 24> H 0.9020122709 1.700222568 -1.4074640019
| 25> H 0.291404467 -2.3221330406 -0.1424456375
| 26> H 0.4733922363 -1.2246041216 1.2174008177
| 27> H -1.6615223088 -0.9812573699 -1.7610619525
| 28> H 4.2853879716 -0.125335643 0.3610655749
| 29> H 3.5602867693 -1.1189937952 -0.9899214325
| 30> H 1.1064464709 0.8796188562 1.7419588052
| 31> H 2.8613524643 1.1039008043 1.8508198
| 32> H 1.9008323173 2.0923933139 0.7536164499
| 33> *
| 34>
| 35>                          ****END OF INPUT****

CARTESIAN COORDINATES (ANGSTROEM)
---------------------------------
  C     -2.700888    0.844904    1.361113
  C     -1.613548    0.469231    0.407727
  C     -0.857257    1.340329   -0.248035
  C      0.202169    0.888882   -1.203641
  C      0.988778   -0.340213   -0.694596
  H      1.337128   -0.894148   -1.571222
  C      0.140155   -1.291249    0.180833
  C     -1.370082   -1.004027    0.174774
  H     -1.840855   -1.593340    0.970285
  O     -2.006005   -1.474938   -1.005754
  C      2.212473    0.089528    0.082594
  C      3.407500   -0.408102   -0.195285
  C      2.009636    1.094650    1.176195
  H     -2.809317    1.924511    1.420581
  H     -2.482582    0.454783    2.354758
  H     -3.643844    0.408574    1.033777
  H     -0.997521    2.403840   -0.119305
  H     -0.265399    0.637946   -2.161035
  H      0.902012    1.700223   -1.407464
  H      0.291404   -2.322133   -0.142446
  H      0.473392   -1.224604    1.217401
  H     -1.661522   -0.981257   -1.761062
  H      4.285388   -0.125336    0.361066
  H      3.560287   -1.118994   -0.989921
  H      1.106446    0.879619    1.741959
  H      2.861352    1.103901    1.850820
  H      1.900832    2.092393    0.753616

 Total Charge           Charge          ....    0
 Multiplicity           Mult            ....    1
 Number of Electrons    NEL             ....   84
 Basis Dimension        Dim             ....  186

ORBITAL ENERGIES
----------------

  NO   OCC          E(Eh)            E(eV)
   0   2.0000     -18.740617      -509.9581
   1   2.0000      -9.936219      -270.3783
   2   2.0000      -9.902781      -269.4684
   3   2.0000      -9.899623      -269.3824
   4   2.0000      -9.896801      -269.3056
   5   2.0000      -9.892273      -269.1824
   6   2.0000      -9.885326      -268.9934
   7   2.0000      -9.884976      -268.9839
   8   2.0000      -9.881782      -268.8969
   9   2.0000      -9.880219      -268.8544
  10   2.0000      -9.867670      -268.5129
  11   2.0000      -0.918267       -24.9873
  12   2.0000      -0.766217       -20.8498
  13   2.0000      -0.723189       -19.6790
  14   2.0000      -0.676616       -18.4117
  15   2.0000      -0.665568       -18.1110
  16   2.0000      -0.618986       -16.8435
  17   2.0000      -0.605529       -16.4773
  18   2.0000      -0.562248       -15.2995
  19   2.0000      -0.533480       -14.5167
  20   2.0000      -0.491353       -13.3704
  21   2.0000      -0.466172       -12.6852
  22   2.0000      -0.432018       -11.7558
  23   2.0000      -0.428823       -11.6689
  24   2.0000      -0.405024       -11.0213
  25   2.0000      -0.400924       -10.9097
  26   2.0000      -0.388755       -10.5786
  27   2.0000      -0.382362       -10.4046
  28   2.0000      -0.367167        -9.9911
  29   2.0000      -0.362215        -9.8564
  30   2.0000      -0.354264        -9.6400
  31   2.0000      -0.346192        -9.4204
  32   2.0000      -0.334551        -9.1036
  33   2.0000      -0.327728        -8.9179
  34   2.0000      -0.323309        -8.7977
  35   2.0000      -0.302054        -8.2193
  36   2.0000      -0.294023        -8.0008
  37   2.0000      -0.280150        -7.6233
  38   2.0000      -0.263739        -7.1767
  39   2.0000      -0.224263        -6.1025
  40   2.0000      -0.211652        -5.7594
  41   2.0000      -0.204245        -5.5578
  42   0.0000      -0.025210        -0.6860
  43   0.0000      -0.008953        -0.2436
  44   0.0000       0.022126         0.6021
  45   0.0000       0.039512         1.0752
  46   0.0000       0.056292         1.5318

MULLIKEN ATOMIC CHARGES
-----------------------
   0 C :   -0.210811
   1 C :   -0.041171
   2 C :   -0.239595
   3 C :   -0.039384
   4 C :   -0.122522
   5 H :    0.053134
   6 C :   -0.063841
   7 C :    0.069568
   8 H :    0.051051
   9 O :   -0.432164
  10 C :   -0.092798
  11 C :   -0.229838
  12 C :   -0.200508
  13 H :    0.096212
  14 H :    0.107086
  15 H :    0.118277
  16 H :    0.044486
  17 H :    0.083033
  18 H :    0.095593
  19 H :    0.081732
  20 H :    0.089977
  21 H :    0.295438
  22 H :    0.079501
  23 H :    0.082763
  24 H :    0.113359
  25 H :    0.101945
  26 H :    0.109479
Sum of atomic charges:   -0.0000000

LOEWDIN ATOMIC CHARGES
----------------------
   0 C :   -0.321478
   1 C :   -0.078998
   2 C :   -0.152101
   3 C :   -0.218084
   4 C :   -0.126619
   5 H :    0.120550
   6 C :   -0.219811
   7 C :   -0.038929
   8 H :    0.112951
   9 O :   -0.323806
  10 C :   -0.049654
  11 C :   -0.268536
  12 C :   -0.324836
  13 H :    0.122236
  14 H :    0.127297
  15 H :    0.132841
  16 H :    0.116393
  17 H :    0.120188
  18 H :    0.126604
  19 H :    0.125616
  20 H :    0.125738
  21 H :    0.278085
  22 H :    0.115621
  23 H :    0.116067
  24 H :    0.126023
  25 H :    0.126058
  26 H :    0.130587

  Mayer bond orders larger than 0.100000
B(  0-C ,  1-C ) :   1.1450 B(  0-C , 13-H ) :   0.9444 B(  0-C , 14-H ) :   0.9276
B(  0-C , 15-H ) :   0.9271 B(  1-C ,  2-C ) :   1.8795 B(  1-C ,  7-C ) :   0.9805
B(  2-C ,  3-C ) :   1.0704 B(  2-C , 16-H ) :   0.9383 B(  3-C ,  4-C ) :   1.0829
B(  3-C , 17-H ) :   0.8754 B(  3-C , 18-H ) :   0.9102 B(  4-C ,  5-H ) :   0.8704
B(  4-C ,  6-C ) :   1.0598 B(  4-C , 10-C ) :   1.0306 B(  6-C ,  7-C ) :   1.0749
B(  6-C , 19-H ) :   0.8929 B(  6-C , 20-H ) :   0.9022 B(  7-C ,  8-H ) :   0.8907
B(  7-C ,  9-O ) :   1.0214 B(  9-O , 21-H ) :   0.8509 B( 10-C , 11-C ) :   2.0345
B( 10-C , 12-C ) :   1.1289 B( 11-C , 22-H ) :   0.9086 B( 11-C , 23-H ) :   0.9081
B( 12-C , 24-H ) :   0.9174 B( 12-C , 25-H ) :   0.9355 B( 12-C , 26-H ) :   0.9193

Dispersion correction           -0.029524180
FINAL SINGLE POINT ENERGY      -464.784285595254

DIPOLE MOMENT
-------------

Method             : SCF
Type of density    : Electron Density
Multiplicity       :   1
Irrep              :   0
Energy             :  -464.8730597061800154 Eh
Relativity type    :
Basis              : AO
                                X                 Y                 Z
Electronic contribution:     -2.606432111      -2.638484883      -3.274000833
Nuclear contribution   :      2.800892414       3.117213117       3.317274299
                        -----------------------------------------
Total Dipole Moment    :      0.194460303       0.478728234       0.043273465
                        -----------------------------------------
Magnitude (a.u.)       :      0.518524950
Magnitude (Debye)      :      1.317985682

Rotational constants in cm-1:             0.061971             0.026214             0.022669
Rotational constants in MHz :          1857.830306           785.878653           679.586316

                             ****ORCA TERMINATED NORMALLY****
TOTAL RUN TIME: 0 days 0 hours 0 minutes 12 seconds 487 msec
