                         Program Version 6.0.0  -   RELEASE  -
|  1> ! pbe def2-sv(p) def2/J RI DEFGRID1 loosescf d4 GCP(DFT/SV(P)) printgap
|  2> %output
|  3>     printlevel normal
|  4> end
|  5> * xyz 0 1
|  6> C -2.3389759188 -0.77630929 0.721268476
|  7> C -0.8697463679 -0.3250575342 0.7523574891
|  8> H -0.603315237 -0.0417272246 1.7805362713
|  9> C -0.6273989624 0.8791442785 -0.1742637952
| 10> H -0.888102828 0.5859716553 -1.1977453296
| 11> C 0.8580343562 1.3051510957 -0.1254828005
| 12> H 0.9680670442 2.1201823504 0.5993237297
| 13> C 1.7594913478 0.1484829269 0.3574052083
| 14> H 2.7504037414 0.2950876183 -0.0932354724
| 15> C 1.1874092461 -1.1772548161 -0.1668257212
| 16> H 1.8131527353 -2.0249429949 0.1544401474
| 17> O -0.0844747626 -1.4525167706 0.3609168959
| 18> O 1.1709066736 -1.0786958959 -1.5595274613
| 19> O 1.8241241922 0.1813524025 1.7587849581
| 20> O 1.3054901198 1.8278245702 -1.3468019277
| 21> O -1.4913841787 1.9420008018 0.1314670832
| 22> O -2.6934067369 -1.3680654397 -0.500899985
| 23> H -2.9792583959 0.0992430097 0.8378949363
| 24> H -2.5123968828 -1.4735453093 1.5498627619
| 25> H 0.9196200123 -1.9248927594 -1.9590252588
| 26> H 2.5170092672 -0.4146324245 2.0782251332
| 27> H 1.2651241014 1.1290447592 -2.0188307901
| 28> H -1.2595628423 2.314222836 0.9948211122
| 29> H -2.1152446614 -2.1332437882 -0.6350299888
| 30> *
| 31>
| 32>                          ****END OF INPUT****

CARTESIAN COORDINATES (ANGSTROEM)
---------------------------------
  C     -2.338976   -0.776309    0.721268
  C     -0.869746   -0.325058    0.752357
  H     -0.603315   -0.041727    1.780536
  C     -0.627399    0.879144   -0.174264
  H     -0.888103    0.585972   -1.197745
  C      0.858034    1.305151   -0.125483
  H      0.968067    2.120182    0.599324
  C      1.759491    0.148483    0.357405
  H      2.750404    0.295088   -0.093235
  C      1.187409   -1.177255   -0.166826
  H      1.813153   -2.024943    0.154440
  O     -0.084475   -1.452517    0.360917
  O      1.170907   -1.078696   -1.559527
  O      1.824124    0.181352    1.758785
  O      1.305490    1.827825   -1.346802
  O     -1.491384    1.942001    0.131467
  O     -2.693407   -1.368065   -0.500900
  H     -2.979258    0.099243    0.837895
  H     -2.512397   -1.473545    1.549863
  H      0.919620   -1.924893   -1.959025
  H      2.517009   -0.414632    2.078225
  H      1.265124    1.129045   -2.018831
  H     -1.259563    2.314223    0.994821
  H     -2.115245   -2.133244   -0.635030

 Total Charge           Charge          ....    0
 Multiplicity           Mult            ....    1
 Number of Electrons    NEL             ....   96
 Basis Dimension        Dim             ....  192

ORBITAL ENERGIES
----------------

  NO   OCC          E(Eh)            E(eV)
   0   2.0000     -18.783589      -511.1274
   1   2.0000     -18.776990      -510.9479
   2   2.0000     -18.770189      -510.7628
   3   2.0000     -18.748021      -510.1596
   4   2.0000     -18.739537      -509.9287
   5   2.0000     -18.738003      -509.8870
   6   2.0000      -9.998010      -272.0597
   7   2.0000      -9.949557      -270.7412
   8   2.0000      -9.939652      -270.4717
   9   2.0000      -9.936264      -270.3795
  10   2.0000      -9.933534      -270.3052
  11   2.0000      -9.922755      -270.0119
  12   2.0000      -0.992142       -26.9976
  13   2.0000      -0.946073       -25.7440
  14   2.0000      -0.933951       -25.4141
  15   2.0000      -0.928687       -25.2709
  16   2.0000      -0.913090       -24.8464
  17   2.0000      -0.910082       -24.7646
  18   2.0000      -0.698041       -18.9946
  19   2.0000      -0.693248       -18.8642
  20   2.0000      -0.618802       -16.8385
  21   2.0000      -0.592339       -16.1184
  22   2.0000      -0.563916       -15.3449
  23   2.0000      -0.530087       -14.4244
  24   2.0000      -0.506784       -13.7903
  25   2.0000      -0.496311       -13.5053
  26   2.0000      -0.472775       -12.8649
  27   2.0000      -0.452123       -12.3029
  28   2.0000      -0.443807       -12.0766
  29   2.0000      -0.431487       -11.7414
  30   2.0000      -0.425254       -11.5717
  31   2.0000      -0.390845       -10.6354
  32   2.0000      -0.381936       -10.3930
  33   2.0000      -0.372424       -10.1342
  34   2.0000      -0.361464        -9.8359
  35   2.0000      -0.349600        -9.5131
  36   2.0000      -0.344198        -9.3661
  37   2.0000      -0.312582        -8.5058
  38   2.0000      -0.304881        -8.2962
  39   2.0000      -0.286614        -7.7992
  40   2.0000      -0.273846        -7.4517
  41   2.0000      -0.271107        -7.3772
  42   2.0000      -0.263576        -7.1723
  43   2.0000      -0.253750        -6.9049
  44   2.0000      -0.230433        -6.2704
  45   2.0000      -0.220470        -5.9993
  46   2.0000      -0.212447        -5.7810
  47   2.0000      -0.197904        -5.3852
  48   0.0000       0.003787         0.1031
  49   0.0000       0.009467         0.2576
  50   0.0000       0.032591         0.8869
  51   0.0000       0.048672         1.3244
  52   0.0000       0.066848         1.8190

MULLIKEN ATOMIC CHARGES
-----------------------
   0 C :    0.099475
   1 C :    0.000963
   2 H :    0.053345
   3 C :    0.066394
   4 H :    0.050240
   5 C :    0.121458
   6 H :    0.054960
   7 C :   -0.002579
   8 H :    0.077780
   9 C :    0.172503
  10 H :    0.051952
  11 O :   -0.326500
  12 O :   -0.399123
  13 O :   -0.408634
  14 O :   -0.426002
  15 O :   -0.410248
  16 O :   -0.439423
  17 H :    0.086785
  18 H :    0.072699
  19 H :    0.309977
  20 H :    0.306181
  21 H :    0.303118
  22 H :    0.296992
  23 H :    0.287687
Sum of atomic charges:    0.0000000

LOEWDIN ATOMIC CHARGES
----------------------
   0 C :   -0.127096
   1 C :   -0.083953
   2 H :    0.105169
   3 C :   -0.077964
   4 H :    0.117658
   5 C :   -0.062933
   6 H :    0.117339
   7 C :   -0.091426
   8 H :    0.111558
   9 C :   -0.010087
  10 H :    0.090736
  11 O :   -0.152194
  12 O :   -0.309908
  13 O :   -0.308410
  14 O :   -0.312459
  15 O :   -0.301182
  16 O :   -0.333414
  17 H :    0.120018
  18 H :    0.096805
  19 H :    0.290709
  20 H :    0.290918
  21 H :    0.276449
  22 H :    0.281246
  23 H :    0.272421

  Mayer bond orders larger than 0.100000
B(  0-C ,  1-C ) :   1.0245 B(  0-C , 16-O ) :   1.0683 B(  0-C , 17-H ) :   0.9084
B(  0-C , 18-H ) :   0.9181 B(  1-C ,  2-H ) :   0.8609 B(  1-C ,  3-C ) :   1.0388
B(  1-C , 11-O ) :   0.9598 B(  3-C ,  4-H ) :   0.8403 B(  3-C ,  5-C ) :   1.0073
B(  3-C , 15-O ) :   1.0216 B(  5-C ,  6-H ) :   0.8590 B(  5-C ,  7-C ) :   0.9894
B(  5-C , 14-O ) :   1.0581 B(  7-C ,  8-H ) :   0.8848 B(  7-C ,  9-C ) :   1.0136
B(  7-C , 13-O ) :   1.0359 B(  9-C , 10-H ) :   0.8961 B(  9-C , 11-O ) :   1.0809
B(  9-C , 12-O ) :   1.1124 B( 12-O , 19-H ) :   0.8356 B( 13-O , 20-H ) :   0.8448
B( 14-O , 21-H ) :   0.8335 B( 15-O , 22-H ) :   0.8473 B( 16-O , 23-H ) :   0.8426

Dispersion correction           -0.025081923
FINAL SINGLE POINT ENERGY      -685.691826112937

DIPOLE MOMENT
-------------

Method             : SCF
Type of density    : Electron Density
Multiplicity       :   1
Irrep              :   0
Energy             :  -685.8226359293283849 Eh
Relativity type    :
Basis              : AO
                                X                 Y                 Z
Electronic contribution:      1.291570327       0.055532279      -1.377978826
Nuclear contribution   :     -0.116342850      -1.377620947       1.944809853
                        -----------------------------------------
Total Dipole Moment    :      1.175227477      -1.322088668       0.566831027
                        -----------------------------------------
Magnitude (a.u.)       :      1.857518636
Magnitude (Debye)      :      4.721437153

Rotational constants in cm-1:             0.040195             0.027189             0.023431
Rotational constants in MHz :          1205.008363           815.113230           702.436600

                             ****ORCA TERMINATED NORMALLY****
TOTAL RUN TIME: 0 days 0 hours 0 minutes 11 seconds 997 msec
