                         Program Version 6.0.0  -   RELEASE  -
|  1> ! r2scan-3c def2/J RI DEFGRID2 scfconv6 printgap
|  2> %output
|  3>     printlevel normal
|  4> end
|  5> * xyz 0 1
|  6> C -1.7441570454 -0.8175776938 0.0018740813
|  7> C -0.5029416228 0.0031578937 -0.3364609532
|  8> C -0.6587077406 1.4486794024 0.1296902321
|  9> C 0.7390620094 -0.6303252551 0.304612965
| 10> O 1.9466014642 -0.0047875007 -0.0752803027
| 11> H -1.646562793 -1.8354917115 -0.3679105108
| 12> H -2.624905658 -0.3686030079 -0.4494841968
| 13> H -1.8893222659 -0.8550732698 1.0790011604
| 14> H -0.3636914236 -0.0014715571 -1.4242155147
| 15> H 0.2683478126 1.995246307 -0.0269597421
| 16> H -0.8959858456 1.4766412856 1.1908819325
| 17> H -1.4558012458 1.9447466516 -0.4179770005
| 18> H 0.689931126 -0.5264502998 1.3915086532
| 19> H 0.7777902958 -1.7016663075 0.0630116874
| 20> H 2.0602681664 -0.0987665018 -1.0311362332
| 21> *
| 22>
| 23>                          ****END OF INPUT****

CARTESIAN COORDINATES (ANGSTROEM)
---------------------------------
  C     -1.744157   -0.817578    0.001874
  C     -0.502942    0.003158   -0.336461
  C     -0.658708    1.448679    0.129690
  C      0.739062   -0.630325    0.304613
  O      1.946601   -0.004788   -0.075280
  H     -1.646563   -1.835492   -0.367911
  H     -2.624906   -0.368603   -0.449484
  H     -1.889322   -0.855073    1.079001
  H     -0.363691   -0.001472   -1.424216
  H      0.268348    1.995246   -0.026960
  H     -0.895986    1.476641    1.190882
  H     -1.455801    1.944747   -0.417977
  H      0.689931   -0.526450    1.391509
  H      0.777790   -1.701666    0.063012
  H      2.060268   -0.098767   -1.031136

 Total Charge           Charge          ....    0
 Multiplicity           Mult            ....    1
 Number of Electrons    NEL             ....   42
 Basis Dimension        Dim             ....  150

ORBITAL ENERGIES
----------------

  NO   OCC          E(Eh)            E(eV)
   0   2.0000     -18.946858      -515.5702
   1   2.0000     -10.071555      -274.0609
   2   2.0000     -10.035838      -273.0890
   3   2.0000     -10.020652      -272.6758
   4   2.0000     -10.012748      -272.4607
   5   2.0000      -0.983882       -26.7728
   6   2.0000      -0.767646       -20.8887
   7   2.0000      -0.651735       -17.7346
   8   2.0000      -0.638709       -17.3802
   9   2.0000      -0.543217       -14.7817
  10   2.0000      -0.465646       -12.6709
  11   2.0000      -0.440684       -11.9916
  12   2.0000      -0.412586       -11.2270
  13   2.0000      -0.381569       -10.3830
  14   2.0000      -0.369851       -10.0642
  15   2.0000      -0.354736        -9.6529
  16   2.0000      -0.331191        -9.0122
  17   2.0000      -0.310435        -8.4474
  18   2.0000      -0.303561        -8.2603
  19   2.0000      -0.283672        -7.7191
  20   2.0000      -0.233926        -6.3655
  21   0.0000       0.062120         1.6904
  22   0.0000       0.091009         2.4765
  23   0.0000       0.124424         3.3857
  24   0.0000       0.133839         3.6419
  25   0.0000       0.139386         3.7929

MULLIKEN ATOMIC CHARGES
-----------------------
   0 C :   -0.491548
   1 C :    0.000985
   2 C :   -0.492907
   3 C :   -0.186964
   4 O :   -0.419450
   5 H :    0.145742
   6 H :    0.149171
   7 H :    0.147807
   8 H :    0.127482
   9 H :    0.168569
  10 H :    0.143548
  11 H :    0.145713
  12 H :    0.140982
  13 H :    0.127285
  14 H :    0.293586
Sum of atomic charges:   -0.0000000

LOEWDIN ATOMIC CHARGES
----------------------
   0 C :   -0.415480
   1 C :   -0.240917
   2 C :   -0.414836
   3 C :    0.003941
   4 O :   -0.620153
   5 H :    0.153107
   6 H :    0.155718
   7 H :    0.155090
   8 H :    0.153216
   9 H :    0.164329
  10 H :    0.153970
  11 H :    0.151867
  12 H :    0.178490
  13 H :    0.157401
  14 H :    0.264258

  Mayer bond orders larger than 0.100000
B(  0-C ,  1-C ) :   0.9079 B(  0-C ,  5-H ) :   0.9725 B(  0-C ,  6-H ) :   0.9702
B(  0-C ,  7-H ) :   0.9842 B(  1-C ,  2-C ) :   0.9113 B(  1-C ,  3-C ) :   0.9163
B(  1-C ,  8-H ) :   0.9458 B(  2-C ,  9-H ) :   0.9679 B(  2-C , 10-H ) :   0.9825
B(  2-C , 11-H ) :   0.9741 B(  3-C ,  4-O ) :   0.9502 B(  3-C , 12-H ) :   0.9784
B(  3-C , 13-H ) :   0.9762 B(  4-O , 14-H ) :   0.8958

Dispersion correction           -0.003228730
FINAL SINGLE POINT ENERGY      -233.600495139542

DIPOLE MOMENT
-------------

Method             : SCF
Type of density    : Electron Density
Multiplicity       :   1
Irrep              :   0
Energy             :  -233.6057512278236175 Eh
Relativity type    :
Basis              : AO
                                X                 Y                 Z
Electronic contribution:      4.336820179      -0.269269436      -0.432902625
Nuclear contribution   :     -4.736872751       0.027240406       0.005184170
                        -----------------------------------------
Total Dipole Moment    :     -0.400052572      -0.242029029      -0.427718455
                        -----------------------------------------
Magnitude (a.u.)       :      0.633690136
Magnitude (Debye)      :      1.610712320

Rotational constants in cm-1:             0.253619             0.116478             0.089063
Rotational constants in MHz :          7603.300234          3491.923568          2670.033935

                             ****ORCA TERMINATED NORMALLY****
TOTAL RUN TIME: 0 days 0 hours 0 minutes 15 seconds 133 msec
