                         Program Version 6.0.0  -   RELEASE  -
|  1> ! r2scan-3c def2/J RI DEFGRID2 scfconv6 printgap
|  2> %output
|  3>     printlevel normal
|  4> end
|  5> %cpcm
|  6>     smd true
|  7>     smdsolvent "water"
|  8> end
|  9> * xyz 0 1
| 10> C -1.7441570454 -0.8175776938 0.0018740813
| 11> C -0.5029416228 0.0031578937 -0.3364609532
| 12> C -0.6587077406 1.4486794024 0.1296902321
| 13> C 0.7390620094 -0.6303252551 0.304612965
| 14> O 1.9466014642 -0.0047875007 -0.0752803027
| 15> H -1.646562793 -1.8354917115 -0.3679105108
| 16> H -2.624905658 -0.3686030079 -0.4494841968
| 17> H -1.8893222659 -0.8550732698 1.0790011604
| 18> H -0.3636914236 -0.0014715571 -1.4242155147
| 19> H 0.2683478126 1.995246307 -0.0269597421
| 20> H -0.8959858456 1.4766412856 1.1908819325
| 21> H -1.4558012458 1.9447466516 -0.4179770005
| 22> H 0.689931126 -0.5264502998 1.3915086532
| 23> H 0.7777902958 -1.7016663075 0.0630116874
| 24> H 2.0602681664 -0.0987665018 -1.0311362332
| 25> *
| 26>
| 27>                          ****END OF INPUT****

CARTESIAN COORDINATES (ANGSTROEM)
---------------------------------
  C     -1.744157   -0.817578    0.001874
  C     -0.502942    0.003158   -0.336461
  C     -0.658708    1.448679    0.129690
  C      0.739062   -0.630325    0.304613
  O      1.946601   -0.004788   -0.075280
  H     -1.646563   -1.835492   -0.367911
  H     -2.624906   -0.368603   -0.449484
  H     -1.889322   -0.855073    1.079001
  H     -0.363691   -0.001472   -1.424216
  H      0.268348    1.995246   -0.026960
  H     -0.895986    1.476641    1.190882
  H     -1.455801    1.944747   -0.417977
  H      0.689931   -0.526450    1.391509
  H      0.777790   -1.701666    0.063012
  H      2.060268   -0.098767   -1.031136

 Total Charge           Charge          ....    0
 Multiplicity           Mult            ....    1
 Number of Electrons    NEL             ....   42
 Basis Dimension        Dim             ....  150

ORBITAL ENERGIES
----------------

  NO   OCC          E(Eh)            E(eV)
   0   2.0000     -18.949429      -515.6402
   1   2.0000     -10.064752      -273.8758
   2   2.0000     -10.025991      -272.8211
   3   2.0000     -10.009134      -272.3624
   4   2.0000     -10.006411      -272.2883
   5   2.0000      -0.985224       -26.8093
   6   2.0000      -0.758724       -20.6459
   7   2.0000      -0.643814       -17.5191
   8   2.0000      -0.632427       -17.2092
   9   2.0000      -0.535258       -14.5651
  10   2.0000      -0.460708       -12.5365
  11   2.0000      -0.433124       -11.7859
  12   2.0000      -0.406832       -11.0705
  13   2.0000      -0.378861       -10.3093
  14   2.0000      -0.361548        -9.8382
  15   2.0000      -0.345323        -9.3967
  16   2.0000      -0.327560        -8.9133
  17   2.0000      -0.304265        -8.2795
  18   2.0000      -0.294457        -8.0126
  19   2.0000      -0.279901        -7.6165
  20   2.0000      -0.236282        -6.4295
  21   0.0000       0.077798         2.1170
  22   0.0000       0.102060         2.7772
  23   0.0000       0.134909         3.6711
  24   0.0000       0.140355         3.8192
  25   0.0000       0.147114         4.0032

MULLIKEN ATOMIC CHARGES
-----------------------
   0 C :   -0.537161
   1 C :    0.022124
   2 C :   -0.540312
   3 C :   -0.187457
   4 O :   -0.508842
   5 H :    0.158971
   6 H :    0.160578
   7 H :    0.160051
   8 H :    0.149574
   9 H :    0.159256
  10 H :    0.159088
  11 H :    0.160529
  12 H :    0.153800
  13 H :    0.139752
  14 H :    0.350048
Sum of atomic charges:   -0.0000000

LOEWDIN ATOMIC CHARGES
----------------------
   0 C :   -0.421993
   1 C :   -0.235293
   2 C :   -0.424097
   3 C :    0.003085
   4 O :   -0.657795
   5 H :    0.157013
   6 H :    0.158435
   7 H :    0.157869
   8 H :    0.161116
   9 H :    0.158901
  10 H :    0.157128
  11 H :    0.156312
  12 H :    0.181068
  13 H :    0.164934
  14 H :    0.283318

  Mayer bond orders larger than 0.100000
B(  0-C ,  1-C ) :   0.8988 B(  0-C ,  5-H ) :   0.9697 B(  0-C ,  6-H ) :   0.9681
B(  0-C ,  7-H ) :   0.9818 B(  1-C ,  2-C ) :   0.8961 B(  1-C ,  3-C ) :   0.9175
B(  1-C ,  8-H ) :   0.9459 B(  2-C ,  9-H ) :   0.9711 B(  2-C , 10-H ) :   0.9814
B(  2-C , 11-H ) :   0.9709 B(  3-C ,  4-O ) :   0.9376 B(  3-C , 12-H ) :   0.9776
B(  3-C , 13-H ) :   0.9678 B(  4-O , 14-H ) :   0.8675

Dispersion correction           -0.003228730
FINAL SINGLE POINT ENERGY      -233.606689233224

DIPOLE MOMENT
-------------

Method             : SCF
Type of density    : Electron Density
Multiplicity       :   1
Irrep              :   0
Energy             :  -233.6119453215058286 Eh
Relativity type    :
Basis              : AO
                                X                 Y                 Z
Electronic contribution:      4.172812394      -0.404395227      -0.613797944
Nuclear contribution   :     -4.736872751       0.027240406       0.005184170
                        -----------------------------------------
Total Dipole Moment    :     -0.564060357      -0.377154821      -0.608613773
                        -----------------------------------------
Magnitude (a.u.)       :      0.911493594
Magnitude (Debye)      :      2.316832593

Rotational constants in cm-1:             0.253619             0.116478             0.089063
Rotational constants in MHz :          7603.300234          3491.923568          2670.033935

                             ****ORCA TERMINATED NORMALLY****
TOTAL RUN TIME: 0 days 0 hours 0 minutes 17 seconds 619 msec
