                         Program Version 6.0.0  -   RELEASE  -
|  1> ! r2scan-3c def2/J RI DEFGRID2 scfconv6 printgap
|  2> %output
|  3>     printlevel normal
|  4> end
|  5> * xyz 0 1
|  6> C -2.4204393623 -1.1010614228 -0.3198010409
|  7> C -1.0733580067 -0.6039805664 0.227514485
|  8> H -1.1189794 -0.5943643629 1.329531759
|  9> C -0.7503338844 0.8207409318 -0.2740377379
| 10> H -0.7526833146 0.8192151064 -1.3708557652
| 11> C 0.646843767 1.2257407677 0.2063518595
| 12> H 0.6495048971 1.2842578107 1.3093886995
| 13> C 1.6683844081 0.158376817 -0.2030093738
| 14> H 1.7358109593 0.1228353475 -1.3002952329
| 15> C 1.2025738815 -1.2238122988 0.2823522391
| 16> H 1.1887068472 -1.2239499002 1.3941760406
| 17> O -0.0869953128 -1.5220287026 -0.1987397766
| 18> O 2.0836072959 -2.1677617531 -0.2050690531
| 19> O 2.902159519 0.5135163497 0.3655781716
| 20> O 0.9685769711 2.4783050157 -0.3389704314
| 21> O -1.7447264581 1.7330584852 0.1172676649
| 22> O -3.5133895001 -0.4513830969 0.2678106475
| 23> H -2.5218685097 -2.1627631026 -0.0850063315
| 24> H -2.4235232941 -0.9814535456 -1.4106034274
| 25> H 1.6962282222 -3.0528660986 -0.1208158727
| 26> H 3.5587991844 -0.1634712476 0.1453437342
| 27> H 1.897697308 2.6697421561 -0.1398088843
| 28> H -1.5126092328 2.1396752703 0.9641372968
| 29> H -3.4124767786 0.5051454114 0.120616014
| 30> *
| 31>
| 32>                          ****END OF INPUT****

CARTESIAN COORDINATES (ANGSTROEM)
---------------------------------
  C     -2.420439   -1.101061   -0.319801
  C     -1.073358   -0.603981    0.227514
  H     -1.118979   -0.594364    1.329532
  C     -0.750334    0.820741   -0.274038
  H     -0.752683    0.819215   -1.370856
  C      0.646844    1.225741    0.206352
  H      0.649505    1.284258    1.309389
  C      1.668384    0.158377   -0.203009
  H      1.735811    0.122835   -1.300295
  C      1.202574   -1.223812    0.282352
  H      1.188707   -1.223950    1.394176
  O     -0.086995   -1.522029   -0.198740
  O      2.083607   -2.167762   -0.205069
  O      2.902160    0.513516    0.365578
  O      0.968577    2.478305   -0.338970
  O     -1.744726    1.733058    0.117268
  O     -3.513390   -0.451383    0.267811
  H     -2.521869   -2.162763   -0.085006
  H     -2.423523   -0.981454   -1.410603
  H      1.696228   -3.052866   -0.120816
  H      3.558799   -0.163471    0.145344
  H      1.897697    2.669742   -0.139809
  H     -1.512609    2.139675    0.964137
  H     -3.412477    0.505145    0.120616

 Total Charge           Charge          ....    0
 Multiplicity           Mult            ....    1
 Number of Electrons    NEL             ....   96
 Basis Dimension        Dim             ....  318

ORBITAL ENERGIES
----------------

  NO   OCC          E(Eh)            E(eV)
   0   2.0000     -18.980566      -516.4875
   1   2.0000     -18.979731      -516.4647
   2   2.0000     -18.975634      -516.3532
   3   2.0000     -18.973790      -516.3031
   4   2.0000     -18.962729      -516.0021
   5   2.0000     -18.941336      -515.4200
   6   2.0000     -10.148523      -276.1554
   7   2.0000     -10.103241      -274.9232
   8   2.0000     -10.100739      -274.8551
   9   2.0000     -10.099153      -274.8119
  10   2.0000     -10.096117      -274.7293
  11   2.0000     -10.078605      -274.2528
  12   2.0000      -1.062726       -28.9182
  13   2.0000      -1.023831       -27.8598
  14   2.0000      -1.016039       -27.6478
  15   2.0000      -0.995919       -27.1003
  16   2.0000      -0.993349       -27.0304
  17   2.0000      -0.980116       -26.6703
  18   2.0000      -0.760624       -20.6976
  19   2.0000      -0.741846       -20.1867
  20   2.0000      -0.659683       -17.9509
  21   2.0000      -0.627460       -17.0741
  22   2.0000      -0.596568       -16.2334
  23   2.0000      -0.575229       -15.6528
  24   2.0000      -0.539301       -14.6751
  25   2.0000      -0.517859       -14.0917
  26   2.0000      -0.492686       -13.4067
  27   2.0000      -0.490099       -13.3363
  28   2.0000      -0.479637       -13.0516
  29   2.0000      -0.467373       -12.7179
  30   2.0000      -0.444448       -12.0941
  31   2.0000      -0.429208       -11.6794
  32   2.0000      -0.409181       -11.1344
  33   2.0000      -0.400711       -10.9039
  34   2.0000      -0.381988       -10.3944
  35   2.0000      -0.378165       -10.2904
  36   2.0000      -0.358141        -9.7455
  37   2.0000      -0.357728        -9.7343
  38   2.0000      -0.343136        -9.3372
  39   2.0000      -0.325849        -8.8668
  40   2.0000      -0.309693        -8.4272
  41   2.0000      -0.296711        -8.0739
  42   2.0000      -0.288818        -7.8591
  43   2.0000      -0.272872        -7.4252
  44   2.0000      -0.257215        -6.9992
  45   2.0000      -0.256698        -6.9851
  46   2.0000      -0.238065        -6.4781
  47   2.0000      -0.226325        -6.1586
  48   0.0000       0.024164         0.6575
  49   0.0000       0.036086         0.9820
  50   0.0000       0.057675         1.5694
  51   0.0000       0.073469         1.9992
  52   0.0000       0.083654         2.2763

MULLIKEN ATOMIC CHARGES
-----------------------
   0 C :   -0.251676
   1 C :   -0.025796
   2 H :    0.181010
   3 C :   -0.116818
   4 H :    0.179159
   5 C :   -0.061027
   6 H :    0.161948
   7 C :    0.069294
   8 H :    0.172351
   9 C :   -0.050737
  10 H :    0.145272
  11 O :   -0.196963
  12 O :   -0.401802
  13 O :   -0.445146
  14 O :   -0.416806
  15 O :   -0.401118
  16 O :   -0.410679
  17 H :    0.148028
  18 H :    0.139573
  19 H :    0.313611
  20 H :    0.315766
  21 H :    0.316123
  22 H :    0.314917
  23 H :    0.321517
Sum of atomic charges:    0.0000000

LOEWDIN ATOMIC CHARGES
----------------------
   0 C :    0.047796
   1 C :    0.111957
   2 H :    0.183006
   3 C :    0.110643
   4 H :    0.200568
   5 C :    0.106226
   6 H :    0.179139
   7 C :    0.118406
   8 H :    0.190286
   9 C :    0.296066
  10 H :    0.179218
  11 O :   -0.686384
  12 O :   -0.503535
  13 O :   -0.572682
  14 O :   -0.560269
  15 O :   -0.565666
  16 O :   -0.600907
  17 H :    0.186417
  18 H :    0.165453
  19 H :    0.287078
  20 H :    0.284260
  21 H :    0.284020
  22 H :    0.278153
  23 H :    0.280752

  Mayer bond orders larger than 0.100000
B(  0-C ,  1-C ) :   0.9180 B(  0-C , 16-O ) :   1.0238 B(  0-C , 17-H ) :   0.9731
B(  0-C , 18-H ) :   0.9932 B(  1-C ,  2-H ) :   0.9505 B(  1-C ,  3-C ) :   0.7962
B(  1-C , 11-O ) :   0.7754 B(  3-C ,  4-H ) :   0.9740 B(  3-C ,  5-C ) :   0.9605
B(  3-C , 15-O ) :   0.9916 B(  5-C ,  6-H ) :   0.9694 B(  5-C ,  7-C ) :   0.8671
B(  5-C , 14-O ) :   0.9105 B(  7-C ,  8-H ) :   0.9710 B(  7-C ,  9-C ) :   0.7948
B(  7-C , 13-O ) :   0.9093 B(  9-C , 10-H ) :   1.0078 B(  9-C , 11-O ) :   0.9162
B(  9-C , 12-O ) :   1.0451 B( 12-O , 19-H ) :   0.8762 B( 13-O , 20-H ) :   0.8806
B( 14-O , 21-H ) :   0.8759 B( 15-O , 22-H ) :   0.8825 B( 16-O , 23-H ) :   0.8465

Dispersion correction           -0.008015986
FINAL SINGLE POINT ENERGY      -687.075477102315

DIPOLE MOMENT
-------------

Method             : SCF
Type of density    : Electron Density
Multiplicity       :   1
Irrep              :   0
Energy             :  -687.0872498429995403 Eh
Relativity type    :
Basis              : AO
                                X                 Y                 Z
Electronic contribution:      1.920165943       0.267112542      -0.335591820
Nuclear contribution   :     -0.943586006      -0.589902554       0.784246815
                        -----------------------------------------
Total Dipole Moment    :      0.976579937      -0.322790012       0.448654996
                        -----------------------------------------
Magnitude (a.u.)       :      1.122137724
Magnitude (Debye)      :      2.852247421

Rotational constants in cm-1:             0.043873             0.024497             0.016438
Rotational constants in MHz :          1315.274031           734.393078           492.792610

                             ****ORCA TERMINATED NORMALLY****
TOTAL RUN TIME: 0 days 0 hours 0 minutes 48 seconds 260 msec
