                         Program Version 6.0.0  -   RELEASE  -
|  1> ! r2scan-3c def2/J RI DEFGRID2 scfconv6 printgap
|  2> %output
|  3>     printlevel normal
|  4> end
|  5> %cpcm
|  6>     smd true
|  7>     smdsolvent "water"
|  8> end
|  9> * xyz 0 1
| 10> C -2.4204393623 -1.1010614228 -0.3198010409
| 11> C -1.0733580067 -0.6039805664 0.227514485
| 12> H -1.1189794 -0.5943643629 1.329531759
| 13> C -0.7503338844 0.8207409318 -0.2740377379
| 14> H -0.7526833146 0.8192151064 -1.3708557652
| 15> C 0.646843767 1.2257407677 0.2063518595
| 16> H 0.6495048971 1.2842578107 1.3093886995
| 17> C 1.6683844081 0.158376817 -0.2030093738
| 18> H 1.7358109593 0.1228353475 -1.3002952329
| 19> C 1.2025738815 -1.2238122988 0.2823522391
| 20> H 1.1887068472 -1.2239499002 1.3941760406
| 21> O -0.0869953128 -1.5220287026 -0.1987397766
| 22> O 2.0836072959 -2.1677617531 -0.2050690531
| 23> O 2.902159519 0.5135163497 0.3655781716
| 24> O 0.9685769711 2.4783050157 -0.3389704314
| 25> O -1.7447264581 1.7330584852 0.1172676649
| 26> O -3.5133895001 -0.4513830969 0.2678106475
| 27> H -2.5218685097 -2.1627631026 -0.0850063315
| 28> H -2.4235232941 -0.9814535456 -1.4106034274
| 29> H 1.6962282222 -3.0528660986 -0.1208158727
| 30> H 3.5587991844 -0.1634712476 0.1453437342
| 31> H 1.897697308 2.6697421561 -0.1398088843
| 32> H -1.5126092328 2.1396752703 0.9641372968
| 33> H -3.4124767786 0.5051454114 0.120616014
| 34> *
| 35>
| 36>                          ****END OF INPUT****

CARTESIAN COORDINATES (ANGSTROEM)
---------------------------------
  C     -2.420439   -1.101061   -0.319801
  C     -1.073358   -0.603981    0.227514
  H     -1.118979   -0.594364    1.329532
  C     -0.750334    0.820741   -0.274038
  H     -0.752683    0.819215   -1.370856
  C      0.646844    1.225741    0.206352
  H      0.649505    1.284258    1.309389
  C      1.668384    0.158377   -0.203009
  H      1.735811    0.122835   -1.300295
  C      1.202574   -1.223812    0.282352
  H      1.188707   -1.223950    1.394176
  O     -0.086995   -1.522029   -0.198740
  O      2.083607   -2.167762   -0.205069
  O      2.902160    0.513516    0.365578
  O      0.968577    2.478305   -0.338970
  O     -1.744726    1.733058    0.117268
  O     -3.513390   -0.451383    0.267811
  H     -2.521869   -2.162763   -0.085006
  H     -2.423523   -0.981454   -1.410603
  H      1.696228   -3.052866   -0.120816
  H      3.558799   -0.163471    0.145344
  H      1.897697    2.669742   -0.139809
  H     -1.512609    2.139675    0.964137
  H     -3.412477    0.505145    0.120616

 Total Charge           Charge          ....    0
 Multiplicity           Mult            ....    1
 Number of Electrons    NEL             ....   96
 Basis Dimension        Dim             ....  318

ORBITAL ENERGIES
----------------

  NO   OCC          E(Eh)            E(eV)
   0   2.0000     -18.975672      -516.3543
   1   2.0000     -18.969760      -516.1934
   2   2.0000     -18.966675      -516.1095
   3   2.0000     -18.964841      -516.0596
   4   2.0000     -18.960791      -515.9494
   5   2.0000     -18.952567      -515.7256
   6   2.0000     -10.137175      -275.8465
   7   2.0000     -10.090839      -274.5857
   8   2.0000     -10.090262      -274.5700
   9   2.0000     -10.088011      -274.5087
  10   2.0000     -10.087772      -274.5022
  11   2.0000     -10.075965      -274.1810
  12   2.0000      -1.054825       -28.7032
  13   2.0000      -1.016687       -27.6655
  14   2.0000      -1.008085       -27.4314
  15   2.0000      -0.991364       -26.9764
  16   2.0000      -0.988721       -26.9045
  17   2.0000      -0.983532       -26.7633
  18   2.0000      -0.750491       -20.4219
  19   2.0000      -0.734089       -19.9756
  20   2.0000      -0.653315       -17.7776
  21   2.0000      -0.616785       -16.7836
  22   2.0000      -0.592059       -16.1108
  23   2.0000      -0.563428       -15.3317
  24   2.0000      -0.529286       -14.4026
  25   2.0000      -0.508607       -13.8399
  26   2.0000      -0.484430       -13.1820
  27   2.0000      -0.482345       -13.1253
  28   2.0000      -0.475897       -12.9498
  29   2.0000      -0.456065       -12.4101
  30   2.0000      -0.437032       -11.8922
  31   2.0000      -0.424995       -11.5647
  32   2.0000      -0.404851       -11.0165
  33   2.0000      -0.395814       -10.7707
  34   2.0000      -0.379922       -10.3382
  35   2.0000      -0.373437       -10.1617
  36   2.0000      -0.353892        -9.6299
  37   2.0000      -0.352090        -9.5809
  38   2.0000      -0.338587        -9.2134
  39   2.0000      -0.324704        -8.8357
  40   2.0000      -0.309810        -8.4304
  41   2.0000      -0.292263        -7.9529
  42   2.0000      -0.282350        -7.6831
  43   2.0000      -0.268899        -7.3171
  44   2.0000      -0.254284        -6.9194
  45   2.0000      -0.251420        -6.8415
  46   2.0000      -0.242165        -6.5896
  47   2.0000      -0.223238        -6.0746
  48   0.0000       0.035066         0.9542
  49   0.0000       0.057444         1.5631
  50   0.0000       0.082120         2.2346
  51   0.0000       0.088349         2.4041
  52   0.0000       0.099243         2.7005

MULLIKEN ATOMIC CHARGES
-----------------------
   0 C :   -0.259422
   1 C :   -0.039895
   2 H :    0.203375
   3 C :   -0.093438
   4 H :    0.194772
   5 C :   -0.033018
   6 H :    0.189387
   7 C :    0.066264
   8 H :    0.185644
   9 C :   -0.065840
  10 H :    0.169887
  11 O :   -0.241513
  12 O :   -0.452076
  13 O :   -0.495291
  14 O :   -0.487438
  15 O :   -0.466000
  16 O :   -0.487143
  17 H :    0.164446
  18 H :    0.158599
  19 H :    0.359991
  20 H :    0.353904
  21 H :    0.352707
  22 H :    0.365217
  23 H :    0.356882
Sum of atomic charges:    0.0000000

LOEWDIN ATOMIC CHARGES
----------------------
   0 C :    0.043641
   1 C :    0.116673
   2 H :    0.193988
   3 C :    0.111241
   4 H :    0.204206
   5 C :    0.109614
   6 H :    0.193746
   7 C :    0.118151
   8 H :    0.194412
   9 C :    0.299180
  10 H :    0.191087
  11 O :   -0.702547
  12 O :   -0.519200
  13 O :   -0.589002
  14 O :   -0.592179
  15 O :   -0.581400
  16 O :   -0.637003
  17 H :    0.191091
  18 H :    0.173672
  19 H :    0.302906
  20 H :    0.297043
  21 H :    0.296275
  22 H :    0.294879
  23 H :    0.289526

  Mayer bond orders larger than 0.100000
B(  0-C ,  1-C ) :   0.9094 B(  0-C , 16-O ) :   1.0021 B(  0-C , 17-H ) :   0.9690
B(  0-C , 18-H ) :   0.9818 B(  1-C ,  2-H ) :   0.9476 B(  1-C ,  3-C ) :   0.8146
B(  1-C , 11-O ) :   0.7828 B(  3-C ,  4-H ) :   0.9692 B(  3-C ,  5-C ) :   0.9398
B(  3-C , 15-O ) :   0.9753 B(  5-C ,  6-H ) :   0.9553 B(  5-C ,  7-C ) :   0.8892
B(  5-C , 14-O ) :   0.8899 B(  7-C ,  8-H ) :   0.9561 B(  7-C ,  9-C ) :   0.8152
B(  7-C , 13-O ) :   0.8920 B(  9-C , 10-H ) :   1.0016 B(  9-C , 11-O ) :   0.9219
B(  9-C , 12-O ) :   1.0466 B( 12-O , 19-H ) :   0.8523 B( 13-O , 20-H ) :   0.8612
B( 14-O , 21-H ) :   0.8582 B( 15-O , 22-H ) :   0.8552 B( 16-O , 23-H ) :   0.8291

Dispersion correction           -0.008015986
FINAL SINGLE POINT ENERGY      -687.107952199635

DIPOLE MOMENT
-------------

Method             : SCF
Type of density    : Electron Density
Multiplicity       :   1
Irrep              :   0
Energy             :  -687.1197249403192018 Eh
Relativity type    :
Basis              : AO
                                X                 Y                 Z
Electronic contribution:      2.183610229       0.120844169      -0.029709180
Nuclear contribution   :     -0.943586006      -0.589902554       0.784246815
                        -----------------------------------------
Total Dipole Moment    :      1.240024223      -0.469058386       0.754537636
                        -----------------------------------------
Magnitude (a.u.)       :      1.525451699
Magnitude (Debye)      :      3.877390078

Rotational constants in cm-1:             0.043873             0.024497             0.016438
Rotational constants in MHz :          1315.274031           734.393078           492.792610

                             ****ORCA TERMINATED NORMALLY****
TOTAL RUN TIME: 0 days 0 hours 0 minutes 56 seconds 624 msec
