                         Program Version 6.0.0  -   RELEASE  -
|  1> ! r2scan-3c def2/J RI DEFGRID2 scfconv6 printgap
|  2> %output
|  3>     printlevel normal
|  4> end
|  5> * xyz 0 1
|  6> C -1.8959724418 -0.0001699748 0.2790486608
|  7> C -1.1873115534 -1.2535853184 -0.2270177447
|  8> C 0.2761958634 -1.2528680193 0.2052451279
|  9> C 0.9866419011 0.0001392149 -0.3139352622
| 10> C 0.2759457608 1.2529908742 0.205262831
| 11> C -1.1876126844 1.2534622638 -0.2269725823
| 12> O 2.3664333605 3.8435e-05 0.0081215127
| 13> H -1.896620255 -0.0002427983 1.3711946261
| 14> H -2.9341131609 -0.0002497948 -0.0570992267
| 15> H -1.6831482206 -2.1453081379 0.160062289
| 16> H -1.2409360662 -1.2853974852 -1.3173303187
| 17> H 0.3345302224 -1.2686900963 1.2966510554
| 18> H 0.7876682992 -2.1394777178 -0.17424917
| 19> H 0.9675984875 0.0002737428 -1.410300953
| 20> H 0.3344438671 1.2689947905 1.2967459625
| 21> H 0.7871506484 2.1397623091 -0.1744402407
| 22> H -1.6836702258 2.1450198266 0.1602004252
| 23> H -1.2412191951 1.2852913176 -1.3173480597
| 24> H 2.4617645412 -0.0002171312 0.9709045447
| 25> *
| 26>
| 27>                          ****END OF INPUT****

CARTESIAN COORDINATES (ANGSTROEM)
---------------------------------
  C     -1.895972   -0.000170    0.279049
  C     -1.187312   -1.253585   -0.227018
  C      0.276196   -1.252868    0.205245
  C      0.986642    0.000139   -0.313935
  C      0.275946    1.252991    0.205263
  C     -1.187613    1.253462   -0.226973
  O      2.366433    0.000038    0.008122
  H     -1.896620   -0.000243    1.371195
  H     -2.934113   -0.000250   -0.057099
  H     -1.683148   -2.145308    0.160062
  H     -1.240936   -1.285397   -1.317330
  H      0.334530   -1.268690    1.296651
  H      0.787668   -2.139478   -0.174249
  H      0.967598    0.000274   -1.410301
  H      0.334444    1.268995    1.296746
  H      0.787151    2.139762   -0.174440
  H     -1.683670    2.145020    0.160200
  H     -1.241219    1.285291   -1.317348
  H      2.461765   -0.000217    0.970905

 Total Charge           Charge          ....    0
 Multiplicity           Mult            ....    1
 Number of Electrons    NEL             ....   56
 Basis Dimension        Dim             ....  198

ORBITAL ENERGIES
----------------

  NO   OCC          E(Eh)            E(eV)
   0   2.0000     -18.942180      -515.4429
   1   2.0000     -10.075756      -274.1753
   2   2.0000     -10.027095      -272.8511
   3   2.0000     -10.027078      -272.8507
   4   2.0000     -10.025525      -272.8084
   5   2.0000     -10.023482      -272.7528
   6   2.0000     -10.023460      -272.7522
   7   2.0000      -0.980368       -26.6772
   8   2.0000      -0.796421       -21.6717
   9   2.0000      -0.712054       -19.3760
  10   2.0000      -0.696645       -18.9567
  11   2.0000      -0.578396       -15.7389
  12   2.0000      -0.577706       -15.7202
  13   2.0000      -0.534802       -14.5527
  14   2.0000      -0.470433       -12.8011
  15   2.0000      -0.427035       -11.6202
  16   2.0000      -0.417654       -11.3649
  17   2.0000      -0.414035       -11.2665
  18   2.0000      -0.390292       -10.6204
  19   2.0000      -0.365997        -9.9593
  20   2.0000      -0.350038        -9.5250
  21   2.0000      -0.339146        -9.2286
  22   2.0000      -0.317248        -8.6328
  23   2.0000      -0.306398        -8.3375
  24   2.0000      -0.297555        -8.0969
  25   2.0000      -0.283974        -7.7273
  26   2.0000      -0.271341        -7.3836
  27   2.0000      -0.226184        -6.1548
  28   0.0000       0.066754         1.8165
  29   0.0000       0.085847         2.3360
  30   0.0000       0.104423         2.8415
  31   0.0000       0.116791         3.1781
  32   0.0000       0.124424         3.3857

MULLIKEN ATOMIC CHARGES
-----------------------
   0 C :   -0.272692
   1 C :   -0.301751
   2 C :   -0.256971
   3 C :   -0.101094
   4 C :   -0.256942
   5 C :   -0.301699
   6 O :   -0.392482
   7 H :    0.137617
   8 H :    0.147125
   9 H :    0.146173
  10 H :    0.145277
  11 H :    0.133085
  12 H :    0.157371
  13 H :    0.146898
  14 H :    0.133082
  15 H :    0.157349
  16 H :    0.146182
  17 H :    0.145273
  18 H :    0.288198
Sum of atomic charges:   -0.0000000

LOEWDIN ATOMIC CHARGES
----------------------
   0 C :   -0.305157
   1 C :   -0.301614
   2 C :   -0.282306
   3 C :    0.049083
   4 C :   -0.282338
   5 C :   -0.301612
   6 O :   -0.599885
   7 H :    0.154192
   8 H :    0.155815
   9 H :    0.155953
  10 H :    0.156235
  11 H :    0.155917
  12 H :    0.164547
  13 H :    0.182232
  14 H :    0.155924
  15 H :    0.164548
  16 H :    0.155959
  17 H :    0.156244
  18 H :    0.266262

  Mayer bond orders larger than 0.100000
B(  0-C ,  1-C ) :   0.9240 B(  0-C ,  5-C ) :   0.9240 B(  0-C ,  7-H ) :   0.9901
B(  0-C ,  8-H ) :   0.9430 B(  1-C ,  2-C ) :   0.8855 B(  1-C ,  9-H ) :   0.9378
B(  1-C , 10-H ) :   0.9883 B(  2-C ,  3-C ) :   0.9422 B(  2-C , 11-H ) :   0.9891
B(  2-C , 12-H ) :   0.9376 B(  3-C ,  4-C ) :   0.9421 B(  3-C ,  6-O ) :   0.9682
B(  3-C , 13-H ) :   0.9648 B(  4-C ,  5-C ) :   0.8855 B(  4-C , 14-H ) :   0.9891
B(  4-C , 15-H ) :   0.9376 B(  5-C , 16-H ) :   0.9378 B(  5-C , 17-H ) :   0.9883
B(  6-O , 18-H ) :   0.8945

Dispersion correction           -0.005322966
FINAL SINGLE POINT ENERGY      -311.008333164354

DIPOLE MOMENT
-------------

Method             : SCF
Type of density    : Electron Density
Multiplicity       :   1
Irrep              :   0
Energy             :  -311.0120518540711601 Eh
Relativity type    :
Basis              : AO
                                X                 Y                 Z
Electronic contribution:      4.097477854       0.000107554      -0.374590090
Nuclear contribution   :     -4.661867359      -0.000225692       0.755334927
                        -----------------------------------------
Total Dipole Moment    :     -0.564389505      -0.000118138       0.380744837
                        -----------------------------------------
Magnitude (a.u.)       :      0.680809928
Magnitude (Debye)      :      1.730481314

Rotational constants in cm-1:             0.144373             0.074578             0.054317
Rotational constants in MHz :          4328.208559          2235.785699          1628.387277

                             ****ORCA TERMINATED NORMALLY****
TOTAL RUN TIME: 0 days 0 hours 0 minutes 54 seconds 749 msec
