                         Program Version 6.0.0  -   RELEASE  -
|  1> ! r2scan-3c def2/J RI DEFGRID2 scfconv6 printgap
|  2> %output
|  3>     printlevel normal
|  4> end
|  5> %cpcm
|  6>     smd true
|  7>     smdsolvent "water"
|  8> end
|  9> * xyz 0 1
| 10> C -1.8959724418 -0.0001699748 0.2790486608
| 11> C -1.1873115534 -1.2535853184 -0.2270177447
| 12> C 0.2761958634 -1.2528680193 0.2052451279
| 13> C 0.9866419011 0.0001392149 -0.3139352622
| 14> C 0.2759457608 1.2529908742 0.205262831
| 15> C -1.1876126844 1.2534622638 -0.2269725823
| 16> O 2.3664333605 3.8435e-05 0.0081215127
| 17> H -1.896620255 -0.0002427983 1.3711946261
| 18> H -2.9341131609 -0.0002497948 -0.0570992267
| 19> H -1.6831482206 -2.1453081379 0.160062289
| 20> H -1.2409360662 -1.2853974852 -1.3173303187
| 21> H 0.3345302224 -1.2686900963 1.2966510554
| 22> H 0.7876682992 -2.1394777178 -0.17424917
| 23> H 0.9675984875 0.0002737428 -1.410300953
| 24> H 0.3344438671 1.2689947905 1.2967459625
| 25> H 0.7871506484 2.1397623091 -0.1744402407
| 26> H -1.6836702258 2.1450198266 0.1602004252
| 27> H -1.2412191951 1.2852913176 -1.3173480597
| 28> H 2.4617645412 -0.0002171312 0.9709045447
| 29> *
| 30>
| 31>                          ****END OF INPUT****

CARTESIAN COORDINATES (ANGSTROEM)
---------------------------------
  C     -1.895972   -0.000170    0.279049
  C     -1.187312   -1.253585   -0.227018
  C      0.276196   -1.252868    0.205245
  C      0.986642    0.000139   -0.313935
  C      0.275946    1.252991    0.205263
  C     -1.187613    1.253462   -0.226973
  O      2.366433    0.000038    0.008122
  H     -1.896620   -0.000243    1.371195
  H     -2.934113   -0.000250   -0.057099
  H     -1.683148   -2.145308    0.160062
  H     -1.240936   -1.285397   -1.317330
  H      0.334530   -1.268690    1.296651
  H      0.787668   -2.139478   -0.174249
  H      0.967598    0.000274   -1.410301
  H      0.334444    1.268995    1.296746
  H      0.787151    2.139762   -0.174440
  H     -1.683670    2.145020    0.160200
  H     -1.241219    1.285291   -1.317348
  H      2.461765   -0.000217    0.970905

 Total Charge           Charge          ....    0
 Multiplicity           Mult            ....    1
 Number of Electrons    NEL             ....   56
 Basis Dimension        Dim             ....  198

ORBITAL ENERGIES
----------------

  NO   OCC          E(Eh)            E(eV)
   0   2.0000     -18.947865      -515.5976
   1   2.0000     -10.070816      -274.0408
   2   2.0000     -10.016195      -272.5545
   3   2.0000     -10.016178      -272.5541
   4   2.0000     -10.014244      -272.5014
   5   2.0000     -10.014220      -272.5008
   6   2.0000     -10.013974      -272.4941
   7   2.0000      -0.984623       -26.7929
   8   2.0000      -0.786743       -21.4084
   9   2.0000      -0.702223       -19.1085
  10   2.0000      -0.688697       -18.7404
  11   2.0000      -0.571912       -15.5625
  12   2.0000      -0.569229       -15.4895
  13   2.0000      -0.524884       -14.2828
  14   2.0000      -0.464418       -12.6375
  15   2.0000      -0.418459       -11.3868
  16   2.0000      -0.413183       -11.2433
  17   2.0000      -0.403926       -10.9914
  18   2.0000      -0.382774       -10.4158
  19   2.0000      -0.360884        -9.8201
  20   2.0000      -0.340629        -9.2690
  21   2.0000      -0.336618        -9.1598
  22   2.0000      -0.305693        -8.3183
  23   2.0000      -0.299138        -8.1399
  24   2.0000      -0.285611        -7.7719
  25   2.0000      -0.278304        -7.5730
  26   2.0000      -0.266987        -7.2651
  27   2.0000      -0.229193        -6.2367
  28   0.0000       0.080396         2.1877
  29   0.0000       0.097325         2.6483
  30   0.0000       0.114690         3.1209
  31   0.0000       0.126878         3.4525
  32   0.0000       0.133548         3.6340

MULLIKEN ATOMIC CHARGES
-----------------------
   0 C :   -0.287001
   1 C :   -0.318573
   2 C :   -0.281423
   3 C :   -0.065672
   4 C :   -0.281422
   5 C :   -0.318531
   6 O :   -0.489843
   7 H :    0.148235
   8 H :    0.153889
   9 H :    0.153616
  10 H :    0.154647
  11 H :    0.156282
  12 H :    0.154202
  13 H :    0.155907
  14 H :    0.156275
  15 H :    0.154184
  16 H :    0.153630
  17 H :    0.154649
  18 H :    0.346947
Sum of atomic charges:   -0.0000000

LOEWDIN ATOMIC CHARGES
----------------------
   0 C :   -0.307378
   1 C :   -0.303021
   2 C :   -0.283437
   3 C :    0.048347
   4 C :   -0.283474
   5 C :   -0.303019
   6 O :   -0.640482
   7 H :    0.157400
   8 H :    0.157431
   9 H :    0.158093
  10 H :    0.158908
  11 H :    0.163789
  12 H :    0.162871
  13 H :    0.185287
  14 H :    0.163793
  15 H :    0.162871
  16 H :    0.158100
  17 H :    0.158920
  18 H :    0.285000

  Mayer bond orders larger than 0.100000
B(  0-C ,  1-C ) :   0.9256 B(  0-C ,  5-C ) :   0.9256 B(  0-C ,  7-H ) :   0.9878
B(  0-C ,  8-H ) :   0.9428 B(  1-C ,  2-C ) :   0.8911 B(  1-C ,  9-H ) :   0.9365
B(  1-C , 10-H ) :   0.9870 B(  2-C ,  3-C ) :   0.9397 B(  2-C , 11-H ) :   0.9880
B(  2-C , 12-H ) :   0.9338 B(  3-C ,  4-C ) :   0.9397 B(  3-C ,  6-O ) :   0.9480
B(  3-C , 13-H ) :   0.9638 B(  4-C ,  5-C ) :   0.8911 B(  4-C , 14-H ) :   0.9880
B(  4-C , 15-H ) :   0.9338 B(  5-C , 16-H ) :   0.9365 B(  5-C , 17-H ) :   0.9870
B(  6-O , 18-H ) :   0.8665

Dispersion correction           -0.005322966
FINAL SINGLE POINT ENERGY      -311.016175629728

DIPOLE MOMENT
-------------

Method             : SCF
Type of density    : Electron Density
Multiplicity       :   1
Irrep              :   0
Energy             :  -311.0198943194455410 Eh
Relativity type    :
Basis              : AO
                                X                 Y                 Z
Electronic contribution:      3.889875935       0.000057542      -0.178192269
Nuclear contribution   :     -4.661867359      -0.000225692       0.755334927
                        -----------------------------------------
Total Dipole Moment    :     -0.771991425      -0.000168149       0.577142658
                        -----------------------------------------
Magnitude (a.u.)       :      0.963879887
Magnitude (Debye)      :      2.449987968

Rotational constants in cm-1:             0.144373             0.074578             0.054317
Rotational constants in MHz :          4328.208559          2235.785699          1628.387277

                             ****ORCA TERMINATED NORMALLY****
TOTAL RUN TIME: 0 days 0 hours 1 minutes 4 seconds 186 msec
