                         Program Version 6.0.0  -   RELEASE  -
|  1> ! pbe def2-sv(p) def2/J RI DEFGRID1 loosescf d4 GCP(DFT/SV(P)) printgap
|  2> %output
|  3>     printlevel normal
|  4> end
|  5> * xyz 0 1
|  6> C -2.3806606515 -1.1392707134 -0.3799963095
|  7> C -1.0789593681 -0.6196126558 0.2393851642
|  8> H -1.1624029053 -0.6297924532 1.3387611943
|  9> C -0.790198047 0.8337604837 -0.1870251015
| 10> H -0.9006801683 0.9277791875 -1.2789677559
| 11> C 0.644457117 1.2486976421 0.1670889094
| 12> H 0.6957414513 1.4069821642 1.2553879384
| 13> C 1.6592038918 0.164964223 -0.2157906271
| 14> H 1.7082759383 0.0924432475 -1.3128462234
| 15> C 1.2055793169 -1.1988150446 0.3203965019
| 16> H 1.1715674817 -1.1554970525 1.4300363079
| 17> O -0.0725636674 -1.5204754366 -0.1740015569
| 18> O 2.0993982851 -2.1547727957 -0.1184964796
| 19> O 2.9024929082 0.5403608836 0.3182834112
| 20> O 0.9257683302 2.4461528988 -0.5109394382
| 21> O -1.6528747112 1.721699233 0.4749107151
| 22> O -3.4567068882 -0.3484009953 0.064491218
| 23> H -2.5020312157 -2.1854584088 -0.0770510957
| 24> H -2.2790482116 -1.0968627155 -1.4712848201
| 25> H 1.7297682078 -3.0407251364 0.020808883
| 26> H 3.5519367873 -0.150313699 0.1178173776
| 27> H 1.8255187815 2.722544176 -0.2796406428
| 28> H -2.5651167037 1.3966708995 0.369930795
| 29> H -4.282460443 -0.6902744745 -0.3074359935
| 30> *
| 31>
| 32>                          ****END OF INPUT****

CARTESIAN COORDINATES (ANGSTROEM)
---------------------------------
  C     -2.380661   -1.139271   -0.379996
  C     -1.078959   -0.619613    0.239385
  H     -1.162403   -0.629792    1.338761
  C     -0.790198    0.833760   -0.187025
  H     -0.900680    0.927779   -1.278968
  C      0.644457    1.248698    0.167089
  H      0.695741    1.406982    1.255388
  C      1.659204    0.164964   -0.215791
  H      1.708276    0.092443   -1.312846
  C      1.205579   -1.198815    0.320397
  H      1.171567   -1.155497    1.430036
  O     -0.072564   -1.520475   -0.174002
  O      2.099398   -2.154773   -0.118496
  O      2.902493    0.540361    0.318283
  O      0.925768    2.446153   -0.510939
  O     -1.652875    1.721699    0.474911
  O     -3.456707   -0.348401    0.064491
  H     -2.502031   -2.185458   -0.077051
  H     -2.279048   -1.096863   -1.471285
  H      1.729768   -3.040725    0.020809
  H      3.551937   -0.150314    0.117817
  H      1.825519    2.722544   -0.279641
  H     -2.565117    1.396671    0.369931
  H     -4.282460   -0.690274   -0.307436

 Total Charge           Charge          ....    0
 Multiplicity           Mult            ....    1
 Number of Electrons    NEL             ....   96
 Basis Dimension        Dim             ....  192

ORBITAL ENERGIES
----------------

  NO   OCC          E(Eh)            E(eV)
   0   2.0000     -18.779927      -511.0278
   1   2.0000     -18.776686      -510.9396
   2   2.0000     -18.768644      -510.7208
   3   2.0000     -18.753217      -510.3010
   4   2.0000     -18.734317      -509.7867
   5   2.0000     -18.727935      -509.6130
   6   2.0000      -9.986815      -271.7551
   7   2.0000      -9.947623      -270.6886
   8   2.0000      -9.947389      -270.6822
   9   2.0000      -9.933093      -270.2932
  10   2.0000      -9.932886      -270.2876
  11   2.0000      -9.931347      -270.2457
  12   2.0000      -0.989004       -26.9122
  13   2.0000      -0.953239       -25.9390
  14   2.0000      -0.934984       -25.4422
  15   2.0000      -0.926387       -25.2083
  16   2.0000      -0.912522       -24.8310
  17   2.0000      -0.899857       -24.4864
  18   2.0000      -0.700018       -19.0485
  19   2.0000      -0.692091       -18.8328
  20   2.0000      -0.621880       -16.9222
  21   2.0000      -0.574102       -15.6221
  22   2.0000      -0.558666       -15.2021
  23   2.0000      -0.518485       -14.1087
  24   2.0000      -0.512474       -13.9451
  25   2.0000      -0.487343       -13.2613
  26   2.0000      -0.472837       -12.8665
  27   2.0000      -0.461391       -12.5551
  28   2.0000      -0.451680       -12.2908
  29   2.0000      -0.447607       -12.1800
  30   2.0000      -0.409515       -11.1435
  31   2.0000      -0.397412       -10.8141
  32   2.0000      -0.393569       -10.7096
  33   2.0000      -0.359686        -9.7875
  34   2.0000      -0.351858        -9.5745
  35   2.0000      -0.348817        -9.4918
  36   2.0000      -0.330750        -9.0002
  37   2.0000      -0.327089        -8.9005
  38   2.0000      -0.308274        -8.3886
  39   2.0000      -0.294961        -8.0263
  40   2.0000      -0.278486        -7.5780
  41   2.0000      -0.261389        -7.1128
  42   2.0000      -0.253035        -6.8854
  43   2.0000      -0.239908        -6.5282
  44   2.0000      -0.238579        -6.4921
  45   2.0000      -0.215048        -5.8518
  46   2.0000      -0.210296        -5.7225
  47   2.0000      -0.194888        -5.3032
  48   0.0000       0.003711         0.1010
  49   0.0000       0.022304         0.6069
  50   0.0000       0.037946         1.0326
  51   0.0000       0.053060         1.4438
  52   0.0000       0.063052         1.7157

MULLIKEN ATOMIC CHARGES
-----------------------
   0 C :    0.070536
   1 C :   -0.015299
   2 H :    0.063700
   3 C :    0.062904
   4 H :    0.050618
   5 C :    0.097207
   6 H :    0.056290
   7 C :    0.034736
   8 H :    0.057457
   9 C :    0.178758
  10 H :    0.036059
  11 O :   -0.313966
  12 O :   -0.387215
  13 O :   -0.425910
  14 O :   -0.410185
  15 O :   -0.419444
  16 O :   -0.442285
  17 H :    0.085495
  18 H :    0.078667
  19 H :    0.309362
  20 H :    0.310082
  21 H :    0.303938
  22 H :    0.301481
  23 H :    0.317013
Sum of atomic charges:   -0.0000000

LOEWDIN ATOMIC CHARGES
----------------------
   0 C :   -0.121912
   1 C :   -0.068931
   2 H :    0.106252
   3 C :   -0.061646
   4 H :    0.104108
   5 C :   -0.059845
   6 H :    0.107633
   7 C :   -0.091769
   8 H :    0.106876
   9 C :   -0.005630
  10 H :    0.080333
  11 O :   -0.151852
  12 O :   -0.301198
  13 O :   -0.321555
  14 O :   -0.314513
  15 O :   -0.321388
  16 O :   -0.329577
  17 H :    0.103549
  18 H :    0.102798
  19 H :    0.291958
  20 H :    0.290277
  21 H :    0.286983
  22 H :    0.272349
  23 H :    0.296699

  Mayer bond orders larger than 0.100000
B(  0-C ,  1-C ) :   1.0626 B(  0-C , 16-O ) :   1.0553 B(  0-C , 17-H ) :   0.9192
B(  0-C , 18-H ) :   0.9077 B(  1-C ,  2-H ) :   0.8737 B(  1-C ,  3-C ) :   1.0044
B(  1-C , 11-O ) :   0.9872 B(  3-C ,  4-H ) :   0.8703 B(  3-C ,  5-C ) :   1.0182
B(  3-C , 15-O ) :   1.1032 B(  5-C ,  6-H ) :   0.8731 B(  5-C ,  7-C ) :   1.0037
B(  5-C , 14-O ) :   1.1005 B(  7-C ,  8-H ) :   0.8654 B(  7-C ,  9-C ) :   0.9893
B(  7-C , 13-O ) :   1.0667 B(  9-C , 10-H ) :   0.8845 B(  9-C , 11-O ) :   1.0042
B(  9-C , 12-O ) :   1.1665 B( 12-O , 19-H ) :   0.8372 B( 13-O , 20-H ) :   0.8389
B( 14-O , 21-H ) :   0.8415 B( 15-O , 22-H ) :   0.8107 B( 16-O , 23-H ) :   0.8411

Dispersion correction           -0.023713886
FINAL SINGLE POINT ENERGY      -685.700339780100

DIPOLE MOMENT
-------------

Method             : SCF
Type of density    : Electron Density
Multiplicity       :   1
Irrep              :   0
Energy             :  -685.8309698926352667 Eh
Relativity type    :
Basis              : AO
                                X                 Y                 Z
Electronic contribution:      2.250690436       0.642886400       0.024410545
Nuclear contribution   :     -2.811844736      -2.243816246      -0.181655456
                        -----------------------------------------
Total Dipole Moment    :     -0.561154301      -1.600929845      -0.157244910
                        -----------------------------------------
Magnitude (a.u.)       :      1.703700819
Magnitude (Debye)      :      4.330463335

Rotational constants in cm-1:             0.044094             0.024492             0.016566
Rotational constants in MHz :          1321.901241           734.260831           496.623968

                             ****ORCA TERMINATED NORMALLY****
TOTAL RUN TIME: 0 days 0 hours 0 minutes 11 seconds 912 msec
