                         Program Version 6.0.0  -   RELEASE  -
|  1> ! r2scan-3c def2/J RI DEFGRID2 scfconv6 printgap
|  2> %output
|  3>     printlevel normal
|  4> end
|  5> %cpcm
|  6>     smd true
|  7>     smdsolvent "water"
|  8> end
|  9> * xyz 0 1
| 10> C 0.7357419026 -1.190521334 -0.2184681176
| 11> C -0.7357280772 -1.1971350603 0.2141553913
| 12> N -1.3771428927 0.000255762 -0.3054607136
| 13> C -0.7353837348 1.1972465793 0.2147461905
| 14> C 0.7356168842 1.1902498295 -0.2190306985
| 15> N 1.4405787256 -2.10175e-05 0.2298186614
| 16> H 0.7831573217 -1.2062442576 -1.3097669661
| 17> H 1.248247409 -2.0707390613 0.1728260317
| 18> H -1.2434717419 -2.0717093884 -0.1955498902
| 19> H -0.7850738327 -1.2486482247 1.3195660468
| 20> H -2.3634535329 0.0004067439 -0.0675298359
| 21> H -1.2434742863 2.0721643478 -0.1936375053
| 22> H -0.7838449778 1.2475439508 1.3202035533
| 23> H 0.7822387833 1.2048731327 -1.3103982142
| 24> H 1.2485919754 2.0707697624 0.1709826467
| 25> H 1.4725773798 0.0002272951 1.2469472676
| 26> *
| 27>
| 28>                          ****END OF INPUT****

CARTESIAN COORDINATES (ANGSTROEM)
---------------------------------
  C      0.735742   -1.190521   -0.218468
  C     -0.735728   -1.197135    0.214155
  N     -1.377143    0.000256   -0.305461
  C     -0.735384    1.197247    0.214746
  C      0.735617    1.190250   -0.219031
  N      1.440579   -0.000021    0.229819
  H      0.783157   -1.206244   -1.309767
  H      1.248247   -2.070739    0.172826
  H     -1.243472   -2.071709   -0.195550
  H     -0.785074   -1.248648    1.319566
  H     -2.363454    0.000407   -0.067530
  H     -1.243474    2.072164   -0.193638
  H     -0.783845    1.247544    1.320204
  H      0.782239    1.204873   -1.310398
  H      1.248592    2.070770    0.170983
  H      1.472577    0.000227    1.246947

 Total Charge           Charge          ....    0
 Multiplicity           Mult            ....    1
 Number of Electrons    NEL             ....   48
 Basis Dimension        Dim             ....  174

ORBITAL ENERGIES
----------------

  NO   OCC          E(Eh)            E(eV)
   0   2.0000     -14.136907      -384.6848
   1   2.0000     -14.136680      -384.6786
   2   2.0000     -10.039996      -273.2022
   3   2.0000     -10.039984      -273.2019
   4   2.0000     -10.039520      -273.1892
   5   2.0000     -10.039505      -273.1888
   6   2.0000      -0.892114       -24.2757
   7   2.0000      -0.837331       -22.7849
   8   2.0000      -0.714097       -19.4316
   9   2.0000      -0.622640       -16.9429
  10   2.0000      -0.591722       -16.1016
  11   2.0000      -0.534743       -14.5511
  12   2.0000      -0.476738       -12.9727
  13   2.0000      -0.419772       -11.4226
  14   2.0000      -0.414692       -11.2843
  15   2.0000      -0.404668       -11.0116
  16   2.0000      -0.389405       -10.5963
  17   2.0000      -0.353063        -9.6073
  18   2.0000      -0.343812        -9.3556
  19   2.0000      -0.310226        -8.4417
  20   2.0000      -0.309136        -8.4120
  21   2.0000      -0.295549        -8.0423
  22   2.0000      -0.201421        -5.4810
  23   2.0000      -0.180767        -4.9189
  24   0.0000       0.081074         2.2061
  25   0.0000       0.104268         2.8373
  26   0.0000       0.117357         3.1934
  27   0.0000       0.123427         3.3586
  28   0.0000       0.132275         3.5994

MULLIKEN ATOMIC CHARGES
-----------------------
   0 C :   -0.261179
   1 C :   -0.239933
   2 N :   -0.378946
   3 C :   -0.239635
   4 C :   -0.261272
   5 N :   -0.414376
   6 H :    0.165470
   7 H :    0.158262
   8 H :    0.154889
   9 H :    0.142635
  10 H :    0.272507
  11 H :    0.154901
  12 H :    0.142653
  13 H :    0.165472
  14 H :    0.158245
  15 H :    0.280308
Sum of atomic charges:    0.0000000

LOEWDIN ATOMIC CHARGES
----------------------
   0 C :   -0.050807
   1 C :   -0.055186
   2 N :   -0.856378
   3 C :   -0.055136
   4 C :   -0.050775
   5 N :   -0.842169
   6 H :    0.180126
   7 H :    0.179483
   8 H :    0.179780
   9 H :    0.159061
  10 H :    0.257450
  11 H :    0.179774
  12 H :    0.159096
  13 H :    0.180167
  14 H :    0.179447
  15 H :    0.256067

  Mayer bond orders larger than 0.100000
B(  0-C ,  1-C ) :   0.8807 B(  0-C ,  5-N ) :   0.9709 B(  0-C ,  6-H ) :   0.9841
B(  0-C ,  7-H ) :   0.9691 B(  1-C ,  2-N ) :   0.9506 B(  1-C ,  8-H ) :   0.9581
B(  1-C ,  9-H ) :   0.9736 B(  2-N ,  3-C ) :   0.9500 B(  2-N , 10-H ) :   0.8957
B(  3-C ,  4-C ) :   0.8807 B(  3-C , 11-H ) :   0.9580 B(  3-C , 12-H ) :   0.9737
B(  4-C ,  5-N ) :   0.9708 B(  4-C , 13-H ) :   0.9841 B(  4-C , 14-H ) :   0.9691
B(  5-N , 15-H ) :   0.8827

Dispersion correction           -0.004200524
FINAL SINGLE POINT ENERGY      -267.859689929535

DIPOLE MOMENT
-------------

Method             : SCF
Type of density    : Electron Density
Multiplicity       :   1
Irrep              :   0
Energy             :  -267.8713619124653178 Eh
Relativity type    :
Basis              : AO
                                X                 Y                 Z
Electronic contribution:      0.120401263       0.001326384      -0.256274103
Nuclear contribution   :     -0.829465313      -0.001270585       1.081894142
                        -----------------------------------------
Total Dipole Moment    :     -0.709064051       0.000055798       0.825620039
                        -----------------------------------------
Magnitude (a.u.)       :      1.088310746
Magnitude (Debye)      :      2.766266078

Rotational constants in cm-1:             0.160874             0.151648             0.088699
Rotational constants in MHz :          4822.872899          4546.278192          2659.143173

                             ****ORCA TERMINATED NORMALLY****
TOTAL RUN TIME: 0 days 0 hours 0 minutes 16 seconds 192 msec
