                         Program Version 6.0.0  -   RELEASE  -
|  1> ! pbe def2-sv(p) def2/J RI DEFGRID1 loosescf d4 GCP(DFT/SV(P)) printgap
|  2> %output
|  3>     printlevel normal
|  4> end
|  5> * xyz 0 1
|  6> C -2.5581291466 -0.8800996437 0.3244585676
|  7> C -1.1175005554 -0.4430258356 0.632311042
|  8> H -0.9799687075 -0.39385791 1.7233999403
|  9> C -0.8216508329 0.9431058626 0.0202895269
| 10> H -1.0700384266 0.9011160298 -1.0472570776
| 11> C 0.6672578551 1.2958016809 0.1980813588
| 12> H 0.8917062402 1.4151160544 1.2657158694
| 13> C 1.5390118939 0.1505258123 -0.3389441158
| 14> H 1.3894195532 0.0600904185 -1.4279500243
| 15> C 1.1051831582 -1.1716847548 0.331203854
| 16> H 1.2983944562 -1.094826225 1.41494294
| 17> O -0.2544909722 -1.4285320919 0.0889708082
| 18> O 1.8522776621 -2.2419407042 -0.1225323559
| 19> O 2.885825389 0.4242580032 -0.0523758689
| 20> O 0.9839383206 2.5389040774 -0.3654683604
| 21> O -1.661270098 1.9300748436 0.5560539748
| 22> O -2.7727672938 -1.0819033266 -1.0466375529
| 23> H -3.2350467309 -0.0800809202 0.6288188421
| 24> H -2.782724988 -1.7906379248 0.8917627484
| 25> H 1.5189000866 -2.5309132039 -0.9867271386
| 26> H 3.4071310844 -0.3826037767 -0.1899696263
| 27> H 0.8322495806 2.5219606053 -1.3214127126
| 28> H -1.3461513978 2.1975381685 1.4313928055
| 29> H -2.1985134524 -1.8031638626 -1.3413232883
| 30> *
| 31>
| 32>                          ****END OF INPUT****

CARTESIAN COORDINATES (ANGSTROEM)
---------------------------------
  C     -2.558129   -0.880100    0.324459
  C     -1.117501   -0.443026    0.632311
  H     -0.979969   -0.393858    1.723400
  C     -0.821651    0.943106    0.020290
  H     -1.070038    0.901116   -1.047257
  C      0.667258    1.295802    0.198081
  H      0.891706    1.415116    1.265716
  C      1.539012    0.150526   -0.338944
  H      1.389420    0.060090   -1.427950
  C      1.105183   -1.171685    0.331204
  H      1.298394   -1.094826    1.414943
  O     -0.254491   -1.428532    0.088971
  O      1.852278   -2.241941   -0.122532
  O      2.885825    0.424258   -0.052376
  O      0.983938    2.538904   -0.365468
  O     -1.661270    1.930075    0.556054
  O     -2.772767   -1.081903   -1.046638
  H     -3.235047   -0.080081    0.628819
  H     -2.782725   -1.790638    0.891763
  H      1.518900   -2.530913   -0.986727
  H      3.407131   -0.382604   -0.189970
  H      0.832250    2.521961   -1.321413
  H     -1.346151    2.197538    1.431393
  H     -2.198513   -1.803164   -1.341323

 Total Charge           Charge          ....    0
 Multiplicity           Mult            ....    1
 Number of Electrons    NEL             ....   96
 Basis Dimension        Dim             ....  192

ORBITAL ENERGIES
----------------

  NO   OCC          E(Eh)            E(eV)
   0   2.0000     -18.787897      -511.2447
   1   2.0000     -18.778771      -510.9963
   2   2.0000     -18.756808      -510.3987
   3   2.0000     -18.753258      -510.3021
   4   2.0000     -18.752902      -510.2924
   5   2.0000     -18.748580      -510.1748
   6   2.0000      -9.998207      -272.0651
   7   2.0000      -9.950898      -270.7777
   8   2.0000      -9.947928      -270.6969
   9   2.0000      -9.945966      -270.6435
  10   2.0000      -9.944473      -270.6029
  11   2.0000      -9.934166      -270.3224
  12   2.0000      -0.999649       -27.2018
  13   2.0000      -0.946775       -25.7631
  14   2.0000      -0.942356       -25.6428
  15   2.0000      -0.928508       -25.2660
  16   2.0000      -0.922375       -25.0991
  17   2.0000      -0.916068       -24.9275
  18   2.0000      -0.705831       -19.2066
  19   2.0000      -0.696035       -18.9401
  20   2.0000      -0.620883       -16.8951
  21   2.0000      -0.594284       -16.1713
  22   2.0000      -0.565528       -15.3888
  23   2.0000      -0.556365       -15.1394
  24   2.0000      -0.508367       -13.8334
  25   2.0000      -0.492275       -13.3955
  26   2.0000      -0.474744       -12.9184
  27   2.0000      -0.461872       -12.5682
  28   2.0000      -0.458718       -12.4824
  29   2.0000      -0.433747       -11.8029
  30   2.0000      -0.426733       -11.6120
  31   2.0000      -0.408158       -11.1065
  32   2.0000      -0.383301       -10.4301
  33   2.0000      -0.376863       -10.2550
  34   2.0000      -0.370908       -10.0929
  35   2.0000      -0.350824        -9.5464
  36   2.0000      -0.330868        -9.0034
  37   2.0000      -0.326513        -8.8849
  38   2.0000      -0.310304        -8.4438
  39   2.0000      -0.293731        -7.9928
  40   2.0000      -0.286498        -7.7960
  41   2.0000      -0.281354        -7.6560
  42   2.0000      -0.264382        -7.1942
  43   2.0000      -0.254798        -6.9334
  44   2.0000      -0.230870        -6.2823
  45   2.0000      -0.225926        -6.1478
  46   2.0000      -0.217096        -5.9075
  47   2.0000      -0.205971        -5.6048
  48   0.0000       0.006911         0.1881
  49   0.0000       0.022458         0.6111
  50   0.0000       0.027640         0.7521
  51   0.0000       0.033455         0.9104
  52   0.0000       0.054534         1.4839

MULLIKEN ATOMIC CHARGES
-----------------------
   0 C :    0.101423
   1 C :   -0.016988
   2 H :    0.041747
   3 C :    0.053242
   4 H :    0.051992
   5 C :    0.086155
   6 H :    0.049468
   7 C :    0.047230
   8 H :    0.023989
   9 C :    0.166054
  10 H :    0.058521
  11 O :   -0.317672
  12 O :   -0.382561
  13 O :   -0.400466
  14 O :   -0.396513
  15 O :   -0.402676
  16 O :   -0.436456
  17 H :    0.092416
  18 H :    0.080845
  19 H :    0.304977
  20 H :    0.300246
  21 H :    0.298508
  22 H :    0.300472
  23 H :    0.296048
Sum of atomic charges:    0.0000000

LOEWDIN ATOMIC CHARGES
----------------------
   0 C :   -0.123814
   1 C :   -0.080940
   2 H :    0.100523
   3 C :   -0.081617
   4 H :    0.113056
   5 C :   -0.077782
   6 H :    0.112484
   7 C :   -0.098118
   8 H :    0.091046
   9 C :   -0.006811
  10 H :    0.099874
  11 O :   -0.157149
  12 O :   -0.291688
  13 O :   -0.314525
  14 O :   -0.303710
  15 O :   -0.301057
  16 O :   -0.328880
  17 H :    0.123303
  18 H :    0.100883
  19 H :    0.289899
  20 H :    0.282527
  21 H :    0.286392
  22 H :    0.286441
  23 H :    0.279663

  Mayer bond orders larger than 0.100000
B(  0-C ,  1-C ) :   1.0333 B(  0-C , 16-O ) :   1.0661 B(  0-C , 17-H ) :   0.9099
B(  0-C , 18-H ) :   0.9191 B(  1-C ,  2-H ) :   0.8702 B(  1-C ,  3-C ) :   0.9662
B(  1-C , 11-O ) :   0.9715 B(  3-C ,  4-H ) :   0.8588 B(  3-C ,  5-C ) :   0.9988
B(  3-C , 15-O ) :   1.0517 B(  5-C ,  6-H ) :   0.8648 B(  5-C ,  7-C ) :   0.9860
B(  5-C , 14-O ) :   1.0827 B(  7-C ,  8-H ) :   0.8561 B(  7-C ,  9-C ) :   0.9783
B(  7-C , 13-O ) :   1.1027 B(  9-C , 10-H ) :   0.8794 B(  9-C , 11-O ) :   1.0143
B(  9-C , 12-O ) :   1.1199 B( 12-O , 19-H ) :   0.8403 B( 13-O , 20-H ) :   0.8333
B( 14-O , 21-H ) :   0.8494 B( 15-O , 22-H ) :   0.8461 B( 16-O , 23-H ) :   0.8450

Dispersion correction           -0.023928284
FINAL SINGLE POINT ENERGY      -685.695737375716

DIPOLE MOMENT
-------------

Method             : SCF
Type of density    : Electron Density
Multiplicity       :   1
Irrep              :   0
Energy             :  -685.8252383627997233 Eh
Relativity type    :
Basis              : AO
                                X                 Y                 Z
Electronic contribution:      2.331689027       0.030581176      -1.083543757
Nuclear contribution   :     -2.118690843      -0.917566248       0.963048961
                        -----------------------------------------
Total Dipole Moment    :      0.212998184      -0.886985072      -0.120494795
                        -----------------------------------------
Magnitude (a.u.)       :      0.920124850
Magnitude (Debye)      :      2.338771504

Rotational constants in cm-1:             0.038744             0.027123             0.017663
Rotational constants in MHz :          1161.528839           813.118740           529.518416

                             ****ORCA TERMINATED NORMALLY****
TOTAL RUN TIME: 0 days 0 hours 0 minutes 11 seconds 977 msec
