                         Program Version 6.0.0  -   RELEASE  -
|  1> ! r2scan-3c def2/J RI DEFGRID2 scfconv6 printgap
|  2> %output
|  3>     printlevel normal
|  4> end
|  5> * xyz 0 1
|  6> C 1.4756628927 0.1268416752 1.1664493275
|  7> C 0.722001206 -0.1523968634 -0.1008598082
|  8> C 1.3239211779 -0.6664325583 -1.168295437
|  9> C -0.7220102127 0.1523756337 -0.1008509262
| 10> C -1.3239324892 0.6664140996 -1.1682751802
| 11> C -1.4756550736 -0.1268372243 1.166479863
| 12> H 1.2964992351 1.1489593809 1.4956559724
| 13> H 2.5423151634 -0.0110325665 1.0115118641
| 14> H 1.1518198851 -0.5455798162 1.9587908175
| 15> H 0.7839140847 -0.9001911534 -2.0694991778
| 16> H 2.3786543258 -0.8845368168 -1.1730576639
| 17> H -2.3785933988 0.8848198001 -1.1729652866
| 18> H -0.7838684027 0.9003179731 -2.0693984172
| 19> H -1.2964837602 -1.1489448645 1.4956963174
| 20> H -1.1517927537 0.5455730218 1.9588209664
| 21> H -2.5423154317 0.0110349619 1.0115969104
| 22> *
| 23>
| 24>                          ****END OF INPUT****

CARTESIAN COORDINATES (ANGSTROEM)
---------------------------------
  C      1.475663    0.126842    1.166449
  C      0.722001   -0.152397   -0.100860
  C      1.323921   -0.666433   -1.168295
  C     -0.722010    0.152376   -0.100851
  C     -1.323932    0.666414   -1.168275
  C     -1.475655   -0.126837    1.166480
  H      1.296499    1.148959    1.495656
  H      2.542315   -0.011033    1.011512
  H      1.151820   -0.545580    1.958791
  H      0.783914   -0.900191   -2.069499
  H      2.378654   -0.884537   -1.173058
  H     -2.378593    0.884820   -1.172965
  H     -0.783868    0.900318   -2.069398
  H     -1.296484   -1.148945    1.495696
  H     -1.151793    0.545573    1.958821
  H     -2.542315    0.011035    1.011597

 Total Charge           Charge          ....    0
 Multiplicity           Mult            ....    1
 Number of Electrons    NEL             ....   46
 Basis Dimension        Dim             ....  164

ORBITAL ENERGIES
----------------

  NO   OCC          E(Eh)            E(eV)
   0   2.0000     -10.042538      -273.2713
   1   2.0000     -10.042333      -273.2658
   2   2.0000     -10.027207      -272.8542
   3   2.0000     -10.027201      -272.8540
   4   2.0000     -10.015373      -272.5322
   5   2.0000     -10.015367      -272.5320
   6   2.0000      -0.799612       -21.7586
   7   2.0000      -0.725725       -19.7480
   8   2.0000      -0.668839       -18.2000
   9   2.0000      -0.640370       -17.4253
  10   2.0000      -0.561103       -15.2684
  11   2.0000      -0.468599       -12.7512
  12   2.0000      -0.445291       -12.1170
  13   2.0000      -0.417901       -11.3717
  14   2.0000      -0.405256       -11.0276
  15   2.0000      -0.383168       -10.4265
  16   2.0000      -0.378397       -10.2967
  17   2.0000      -0.359759        -9.7895
  18   2.0000      -0.345881        -9.4119
  19   2.0000      -0.322015        -8.7625
  20   2.0000      -0.302937        -8.2433
  21   2.0000      -0.259872        -7.0715
  22   2.0000      -0.209769        -5.7081
  23   0.0000      -0.042566        -1.1583
  24   0.0000       0.030508         0.8302
  25   0.0000       0.093516         2.5447
  26   0.0000       0.113790         3.0964
  27   0.0000       0.118506         3.2247

MULLIKEN ATOMIC CHARGES
-----------------------
   0 C :   -0.507227
   1 C :    0.091114
   2 C :   -0.350206
   3 C :    0.091153
   4 C :   -0.350228
   5 C :   -0.507244
   6 H :    0.168732
   7 H :    0.150078
   8 H :    0.160107
   9 H :    0.148067
  10 H :    0.139327
  11 H :    0.139335
  12 H :    0.148071
  13 H :    0.168734
  14 H :    0.160107
  15 H :    0.150081
Sum of atomic charges:    0.0000000

LOEWDIN ATOMIC CHARGES
----------------------
   0 C :   -0.389185
   1 C :   -0.116354
   2 C :   -0.301050
   3 C :   -0.116350
   4 C :   -0.301043
   5 C :   -0.389187
   6 H :    0.162708
   7 H :    0.160597
   8 H :    0.164094
   9 H :    0.162910
  10 H :    0.156277
  11 H :    0.156278
  12 H :    0.162908
  13 H :    0.162707
  14 H :    0.164093
  15 H :    0.160596

  Mayer bond orders larger than 0.100000
B(  0-C ,  1-C ) :   0.8606 B(  0-C ,  6-H ) :   0.9832 B(  0-C ,  7-H ) :   0.9807
B(  0-C ,  8-H ) :   0.9620 B(  1-C ,  2-C ) :   1.8528 B(  1-C ,  3-C ) :   0.9842
B(  2-C ,  9-H ) :   0.9780 B(  2-C , 10-H ) :   0.9662 B(  3-C ,  4-C ) :   1.8528
B(  3-C ,  5-C ) :   0.8606 B(  4-C , 11-H ) :   0.9662 B(  4-C , 12-H ) :   0.9780
B(  5-C , 13-H ) :   0.9832 B(  5-C , 14-H ) :   0.9620 B(  5-C , 15-H ) :   0.9807

Dispersion correction           -0.004234315
FINAL SINGLE POINT ENERGY      -234.538128485197

DIPOLE MOMENT
-------------

Method             : SCF
Type of density    : Electron Density
Multiplicity       :   1
Irrep              :   0
Energy             :  -234.5400118366103186 Eh
Relativity type    :
Basis              : AO
                                X                 Y                 Z
Electronic contribution:     -0.000130937      -0.000248846      -1.984290601
Nuclear contribution   :      0.000139737       0.000393955       2.295832629
                        -----------------------------------------
Total Dipole Moment    :      0.000008800       0.000145108       0.311542028
                        -----------------------------------------
Magnitude (a.u.)       :      0.311542062
Magnitude (Debye)      :      0.791876991

Rotational constants in cm-1:             0.160299             0.107536             0.071899
Rotational constants in MHz :          4805.631829          3223.863156          2155.472221

                             ****ORCA TERMINATED NORMALLY****
TOTAL RUN TIME: 0 days 0 hours 0 minutes 13 seconds 860 msec
