                         Program Version 6.0.0  -   RELEASE  -
|  1> ! r2scan-3c def2/J RI DEFGRID2 scfconv6 printgap
|  2> %output
|  3>     printlevel normal
|  4> end
|  5> %cpcm
|  6>     smd true
|  7>     smdsolvent "water"
|  8> end
|  9> * xyz 0 1
| 10> C 1.4756628927 0.1268416752 1.1664493275
| 11> C 0.722001206 -0.1523968634 -0.1008598082
| 12> C 1.3239211779 -0.6664325583 -1.168295437
| 13> C -0.7220102127 0.1523756337 -0.1008509262
| 14> C -1.3239324892 0.6664140996 -1.1682751802
| 15> C -1.4756550736 -0.1268372243 1.166479863
| 16> H 1.2964992351 1.1489593809 1.4956559724
| 17> H 2.5423151634 -0.0110325665 1.0115118641
| 18> H 1.1518198851 -0.5455798162 1.9587908175
| 19> H 0.7839140847 -0.9001911534 -2.0694991778
| 20> H 2.3786543258 -0.8845368168 -1.1730576639
| 21> H -2.3785933988 0.8848198001 -1.1729652866
| 22> H -0.7838684027 0.9003179731 -2.0693984172
| 23> H -1.2964837602 -1.1489448645 1.4956963174
| 24> H -1.1517927537 0.5455730218 1.9588209664
| 25> H -2.5423154317 0.0110349619 1.0115969104
| 26> *
| 27>
| 28>                          ****END OF INPUT****

CARTESIAN COORDINATES (ANGSTROEM)
---------------------------------
  C      1.475663    0.126842    1.166449
  C      0.722001   -0.152397   -0.100860
  C      1.323921   -0.666433   -1.168295
  C     -0.722010    0.152376   -0.100851
  C     -1.323932    0.666414   -1.168275
  C     -1.475655   -0.126837    1.166480
  H      1.296499    1.148959    1.495656
  H      2.542315   -0.011033    1.011512
  H      1.151820   -0.545580    1.958791
  H      0.783914   -0.900191   -2.069499
  H      2.378654   -0.884537   -1.173058
  H     -2.378593    0.884820   -1.172965
  H     -0.783868    0.900318   -2.069398
  H     -1.296484   -1.148945    1.495696
  H     -1.151793    0.545573    1.958821
  H     -2.542315    0.011035    1.011597

 Total Charge           Charge          ....    0
 Multiplicity           Mult            ....    1
 Number of Electrons    NEL             ....   46
 Basis Dimension        Dim             ....  164

ORBITAL ENERGIES
----------------

  NO   OCC          E(Eh)            E(eV)
   0   2.0000     -10.042204      -273.2623
   1   2.0000     -10.041999      -273.2567
   2   2.0000     -10.017739      -272.5965
   3   2.0000     -10.017733      -272.5964
   4   2.0000     -10.013071      -272.4695
   5   2.0000     -10.013065      -272.4693
   6   2.0000      -0.797869       -21.7111
   7   2.0000      -0.722242       -19.6532
   8   2.0000      -0.663555       -18.0562
   9   2.0000      -0.635499       -17.2928
  10   2.0000      -0.557884       -15.1808
  11   2.0000      -0.465019       -12.6538
  12   2.0000      -0.441168       -12.0048
  13   2.0000      -0.413422       -11.2498
  14   2.0000      -0.399028       -10.8581
  15   2.0000      -0.378191       -10.2911
  16   2.0000      -0.369802       -10.0628
  17   2.0000      -0.351561        -9.5665
  18   2.0000      -0.338564        -9.2128
  19   2.0000      -0.316666        -8.6169
  20   2.0000      -0.298868        -8.1326
  21   2.0000      -0.259965        -7.0740
  22   2.0000      -0.211772        -5.7626
  23   0.0000      -0.043889        -1.1943
  24   0.0000       0.030628         0.8334
  25   0.0000       0.100495         2.7346
  26   0.0000       0.119942         3.2638
  27   0.0000       0.126622         3.4456

MULLIKEN ATOMIC CHARGES
-----------------------
   0 C :   -0.527035
   1 C :    0.074037
   2 C :   -0.415425
   3 C :    0.074054
   4 C :   -0.415425
   5 C :   -0.527046
   6 H :    0.184385
   7 H :    0.167735
   8 H :    0.180008
   9 H :    0.168191
  10 H :    0.168097
  11 H :    0.168103
  12 H :    0.168191
  13 H :    0.184384
  14 H :    0.180008
  15 H :    0.167737
Sum of atomic charges:    0.0000000

LOEWDIN ATOMIC CHARGES
----------------------
   0 C :   -0.394186
   1 C :   -0.120902
   2 C :   -0.323175
   3 C :   -0.120901
   4 C :   -0.323164
   5 C :   -0.394188
   6 H :    0.168926
   7 H :    0.165450
   8 H :    0.172158
   9 H :    0.167242
  10 H :    0.164485
  11 H :    0.164486
  12 H :    0.167240
  13 H :    0.168924
  14 H :    0.172157
  15 H :    0.165449

  Mayer bond orders larger than 0.100000
B(  0-C ,  1-C ) :   0.8672 B(  0-C ,  6-H ) :   0.9743 B(  0-C ,  7-H ) :   0.9766
B(  0-C ,  8-H ) :   0.9554 B(  1-C ,  2-C ) :   1.8304 B(  1-C ,  3-C ) :   0.9627
B(  2-C ,  9-H ) :   0.9777 B(  2-C , 10-H ) :   0.9647 B(  3-C ,  4-C ) :   1.8303
B(  3-C ,  5-C ) :   0.8672 B(  4-C , 11-H ) :   0.9647 B(  4-C , 12-H ) :   0.9777
B(  5-C , 13-H ) :   0.9743 B(  5-C , 14-H ) :   0.9554 B(  5-C , 15-H ) :   0.9766

Dispersion correction           -0.004234315
FINAL SINGLE POINT ENERGY      -234.536688362636

DIPOLE MOMENT
-------------

Method             : SCF
Type of density    : Electron Density
Multiplicity       :   1
Irrep              :   0
Energy             :  -234.5385717140492829 Eh
Relativity type    :
Basis              : AO
                                X                 Y                 Z
Electronic contribution:     -0.000122496      -0.000183952      -1.813111226
Nuclear contribution   :      0.000139737       0.000393955       2.295832629
                        -----------------------------------------
Total Dipole Moment    :      0.000017241       0.000210003       0.482721403
                        -----------------------------------------
Magnitude (a.u.)       :      0.482721449
Magnitude (Debye)      :      1.226980413

Rotational constants in cm-1:             0.160299             0.107536             0.071899
Rotational constants in MHz :          4805.631829          3223.863156          2155.472221

                             ****ORCA TERMINATED NORMALLY****
TOTAL RUN TIME: 0 days 0 hours 0 minutes 16 seconds 327 msec
