                         Program Version 6.0.0  -   RELEASE  -
|  1> ! wb97x-v def2-tzvp def2/J RIJCOSX DEFGRID2 scfconv7 GCP(DFT/TZ) printgap
|  2> %output
|  3>     printlevel normal
|  4> end
|  5> * xyz 0 1
|  6> C -2.828770444223101 -0.24445291094085 -0.3582181468899879
|  7> O -1.4016891996089735 -0.5517041525654012 -0.4550530158174661
|  8> C -0.6007122147086033 0.30561103043652565 0.14299828703133444
|  9> O -0.9023531162110263 1.3042948681085875 0.7541631890176217
| 10> C 0.8863019311734794 -0.09947835466994245 0.000847728776010802
| 11> F 1.5765692900948767 0.9217584980547079 -0.5408916739216402
| 12> F 1.3981055506465825 -0.3425459050510363 1.2239254141237754
| 13> F 1.0815007982528255 -1.18660813889974 -0.7577558752036611
| 14> H -3.32234513253355 -1.020752774104232 -0.938495200354041
| 15> H -3.0158643790436206 0.7433500847083031 -0.7824295219888712
| 16> H -3.133907684345449 -0.28172691139539996 0.6889033978488764
| 17> *
| 18>
| 19>                          ****END OF INPUT****

CARTESIAN COORDINATES (ANGSTROEM)
---------------------------------
  C     -2.828770   -0.244453   -0.358218
  O     -1.401689   -0.551704   -0.455053
  C     -0.600712    0.305611    0.142998
  O     -0.902353    1.304295    0.754163
  C      0.886302   -0.099478    0.000848
  F      1.576569    0.921758   -0.540892
  F      1.398106   -0.342546    1.223925
  F      1.081501   -1.186608   -0.757756
  H     -3.322345   -1.020753   -0.938495
  H     -3.015864    0.743350   -0.782430
  H     -3.133908   -0.281727    0.688903

 Total Charge           Charge          ....    0
 Multiplicity           Mult            ....    1
 Number of Electrons    NEL             ....   64
 Basis Dimension        Dim             ....  266

ORBITAL ENERGIES
----------------

  NO   OCC          E(Eh)            E(eV)
   0   2.0000     -27.613996      -751.4150
   1   2.0000     -27.610955      -751.3323
   2   2.0000     -27.610624      -751.3233
   3   2.0000     -21.761444      -592.1590
   4   2.0000     -21.696243      -590.3848
   5   2.0000     -12.320483      -335.2574
   6   2.0000     -12.219009      -332.4961
   7   2.0000     -12.132277      -330.1360
   8   2.0000      -2.076008       -56.4910
   9   2.0000      -2.027844       -55.1804
  10   2.0000      -2.024646       -55.0934
  11   2.0000      -1.806053       -49.1452
  12   2.0000      -1.739528       -47.3350
  13   2.0000      -1.405362       -38.2418
  14   2.0000      -1.322096       -35.9761
  15   2.0000      -1.273071       -34.6420
  16   2.0000      -1.269859       -34.5546
  17   2.0000      -1.228187       -33.4207
  18   2.0000      -1.176607       -32.0171
  19   2.0000      -1.176526       -32.0149
  20   2.0000      -1.163302       -31.6551
  21   2.0000      -1.161847       -31.6155
  22   2.0000      -1.161509       -31.6063
  23   2.0000      -1.158427       -31.5224
  24   2.0000      -1.105870       -30.0922
  25   2.0000      -1.081554       -29.4306
  26   2.0000      -1.036180       -28.1959
  27   2.0000      -0.997017       -27.1302
  28   2.0000      -0.936392       -25.4805
  29   2.0000      -0.912740       -24.8369
  30   2.0000      -0.873457       -23.7680
  31   2.0000      -0.858348       -23.3568
  32   0.0000      -0.382941       -10.4203
  33   0.0000      -0.290568        -7.9067
  34   0.0000      -0.258720        -7.0401
  35   0.0000      -0.208056        -5.6615
  36   0.0000      -0.187874        -5.1123

MULLIKEN ATOMIC CHARGES
-----------------------
   0 C :   -0.193214
   1 O :   -0.205225
   2 C :    0.253282
   3 O :   -0.305350
   4 C :    0.455033
   5 F :   -0.146122
   6 F :   -0.147942
   7 F :   -0.142768
   8 H :    0.144196
   9 H :    0.144780
  10 H :    0.143331
Sum of atomic charges:    0.0000000

LOEWDIN ATOMIC CHARGES
----------------------
   0 C :   -0.256874
   1 O :    0.261972
   2 C :   -0.472787
   3 O :    0.134446
   4 C :   -0.628327
   5 F :    0.202888
   6 F :    0.200216
   7 F :    0.208754
   8 H :    0.115829
   9 H :    0.117108
  10 H :    0.116775

  Mayer bond orders larger than 0.100000
B(  0-C ,  1-O ) :   0.8772 B(  0-C ,  8-H ) :   0.9686 B(  0-C ,  9-H ) :   0.9736
B(  0-C , 10-H ) :   0.9745 B(  1-O ,  2-C ) :   1.2499 B(  2-C ,  3-O ) :   2.0537
B(  2-C ,  4-C ) :   0.9541 B(  4-C ,  5-F ) :   1.1639 B(  4-C ,  6-F ) :   1.1577
B(  4-C ,  7-F ) :   1.1843

FINAL SINGLE POINT ENERGY      -566.155949742378

DIPOLE MOMENT
-------------

Method             : SCF
Type of density    : Electron Density
Multiplicity       :   1
Irrep              :   0
Energy             :  -566.1697114932776458 Eh
Relativity type    :
Basis              : AO
                                X                 Y                 Z
Electronic contribution:     11.495850012      -0.528819639       0.498380178
Nuclear contribution   :    -12.678827665       0.049603774      -0.894436314
                        -----------------------------------------
Total Dipole Moment    :     -1.182977653      -0.479215865      -0.396056136
                        -----------------------------------------
Magnitude (a.u.)       :      1.336392321
Magnitude (Debye)      :      3.396839329

Rotational constants in cm-1:             0.119584             0.049757             0.043631
Rotational constants in MHz :          3585.025787          1491.665716          1308.013133

                             ****ORCA TERMINATED NORMALLY****
TOTAL RUN TIME: 0 days 0 hours 1 minutes 26 seconds 20 msec
