                         Program Version 6.0.0  -   RELEASE  -
|  1> ! wb97x-v def2-tzvp def2/J RIJCOSX DEFGRID2 scfconv7 GCP(DFT/TZ) printgap
|  2> %output
|  3>     printlevel normal
|  4> end
|  5> %cpcm
|  6>     smd true
|  7>     smdsolvent "water"
|  8> end
|  9> * xyz 0 1
| 10> C -2.828770444223101 -0.24445291094085 -0.3582181468899879
| 11> O -1.4016891996089735 -0.5517041525654012 -0.4550530158174661
| 12> C -0.6007122147086033 0.30561103043652565 0.14299828703133444
| 13> O -0.9023531162110263 1.3042948681085875 0.7541631890176217
| 14> C 0.8863019311734794 -0.09947835466994245 0.000847728776010802
| 15> F 1.5765692900948767 0.9217584980547079 -0.5408916739216402
| 16> F 1.3981055506465825 -0.3425459050510363 1.2239254141237754
| 17> F 1.0815007982528255 -1.18660813889974 -0.7577558752036611
| 18> H -3.32234513253355 -1.020752774104232 -0.938495200354041
| 19> H -3.0158643790436206 0.7433500847083031 -0.7824295219888712
| 20> H -3.133907684345449 -0.28172691139539996 0.6889033978488764
| 21> *
| 22>
| 23>                          ****END OF INPUT****

CARTESIAN COORDINATES (ANGSTROEM)
---------------------------------
  C     -2.828770   -0.244453   -0.358218
  O     -1.401689   -0.551704   -0.455053
  C     -0.600712    0.305611    0.142998
  O     -0.902353    1.304295    0.754163
  C      0.886302   -0.099478    0.000848
  F      1.576569    0.921758   -0.540892
  F      1.398106   -0.342546    1.223925
  F      1.081501   -1.186608   -0.757756
  H     -3.322345   -1.020753   -0.938495
  H     -3.015864    0.743350   -0.782430
  H     -3.133908   -0.281727    0.688903

 Total Charge           Charge          ....    0
 Multiplicity           Mult            ....    1
 Number of Electrons    NEL             ....   64
 Basis Dimension        Dim             ....  266

ORBITAL ENERGIES
----------------

  NO   OCC          E(Eh)            E(eV)
   0   2.0000     -27.617689      -751.5155
   1   2.0000     -27.615983      -751.4691
   2   2.0000     -27.615866      -751.4659
   3   2.0000     -21.752503      -591.9157
   4   2.0000     -21.697943      -590.4310
   5   2.0000     -12.323383      -335.3363
   6   2.0000     -12.220297      -332.5312
   7   2.0000     -12.104251      -329.3734
   8   2.0000      -2.080422       -56.6112
   9   2.0000      -2.032069       -55.2954
  10   2.0000      -2.029847       -55.2349
  11   2.0000      -1.799564       -48.9686
  12   2.0000      -1.739001       -47.3206
  13   2.0000      -1.408719       -38.3332
  14   2.0000      -1.310274       -35.6544
  15   2.0000      -1.277615       -34.7657
  16   2.0000      -1.275123       -34.6979
  17   2.0000      -1.227936       -33.4138
  18   2.0000      -1.181368       -32.1467
  19   2.0000      -1.181265       -32.1439
  20   2.0000      -1.168096       -31.7855
  21   2.0000      -1.166417       -31.7398
  22   2.0000      -1.163718       -31.6664
  23   2.0000      -1.155634       -31.4464
  24   2.0000      -1.103705       -30.0333
  25   2.0000      -1.077846       -29.3297
  26   2.0000      -1.024965       -27.8907
  27   2.0000      -0.986894       -26.8547
  28   2.0000      -0.939089       -25.5539
  29   2.0000      -0.916402       -24.9366
  30   2.0000      -0.845958       -23.0197
  31   2.0000      -0.832135       -22.6435
  32   0.0000      -0.380413       -10.3516
  33   0.0000      -0.293295        -7.9810
  34   0.0000      -0.258171        -7.0252
  35   0.0000      -0.192167        -5.2291
  36   0.0000      -0.188331        -5.1248

MULLIKEN ATOMIC CHARGES
-----------------------
   0 C :   -0.223722
   1 O :   -0.219338
   2 C :    0.345601
   3 O :   -0.399633
   4 C :    0.460044
   5 F :   -0.155517
   6 F :   -0.156218
   7 F :   -0.151033
   8 H :    0.169145
   9 H :    0.164891
  10 H :    0.165782
Sum of atomic charges:    0.0000000

LOEWDIN ATOMIC CHARGES
----------------------
   0 C :   -0.247221
   1 O :    0.265250
   2 C :   -0.452473
   3 O :    0.085913
   4 C :   -0.621336
   5 F :    0.197457
   6 F :    0.195399
   7 F :    0.205903
   8 H :    0.124800
   9 H :    0.123014
  10 H :    0.123294

  Mayer bond orders larger than 0.100000
B(  0-C ,  1-O ) :   0.8491 B(  0-C ,  8-H ) :   0.9631 B(  0-C ,  9-H ) :   0.9681
B(  0-C , 10-H ) :   0.9683 B(  1-O ,  2-C ) :   1.2795 B(  2-C ,  3-O ) :   1.9595
B(  2-C ,  4-C ) :   0.9588 B(  4-C ,  5-F ) :   1.1559 B(  4-C ,  6-F ) :   1.1517
B(  4-C ,  7-F ) :   1.1769

FINAL SINGLE POINT ENERGY      -566.158047565211

DIPOLE MOMENT
-------------

Method             : SCF
Type of density    : Electron Density
Multiplicity       :   1
Irrep              :   0
Energy             :  -566.1718093161113075 Eh
Relativity type    :
Basis              : AO
                                X                 Y                 Z
Electronic contribution:     11.263442978      -0.722557596       0.358433444
Nuclear contribution   :    -12.678827665       0.049603774      -0.894436314
                        -----------------------------------------
Total Dipole Moment    :     -1.415384688      -0.672953823      -0.536002870
                        -----------------------------------------
Magnitude (a.u.)       :      1.656345295
Magnitude (Debye)      :      4.210095159

Rotational constants in cm-1:             0.119584             0.049757             0.043631
Rotational constants in MHz :          3585.025787          1491.665716          1308.013133

                             ****ORCA TERMINATED NORMALLY****
TOTAL RUN TIME: 0 days 0 hours 1 minutes 22 seconds 92 msec
