                         Program Version 6.0.0  -   RELEASE  -
|  1> ! pbe def2-sv(p) def2/J RI DEFGRID1 loosescf d4 GCP(DFT/SV(P)) printgap
|  2> %output
|  3>     printlevel normal
|  4> end
|  5> * xyz 0 1
|  6> C -1.9615179038 -0.169256905 0.505369424
|  7> C -1.1832803098 -0.1670692523 -0.8049203917
|  8> C 0.0993519631 0.6404272749 -0.7174921123
|  9> Cl 1.2785789406 -0.1289333645 0.4070221477
| 10> H -1.3584755712 -0.5967137559 1.3028808814
| 11> H -2.2367758438 0.8440916763 0.7873445848
| 12> H -2.8676460884 -0.7598558192 0.4047872446
| 13> H -0.9471653124 -1.1917271179 -1.0958706253
| 14> H -1.7938321218 0.2776465626 -1.5930669135
| 15> H -0.0822512595 1.6387647459 -0.3233915841
| 16> H 0.6037620776 0.6991452064 -1.6799307599
| 17> *
| 18>
| 19>                          ****END OF INPUT****

CARTESIAN COORDINATES (ANGSTROEM)
---------------------------------
  C     -1.961518   -0.169257    0.505369
  C     -1.183280   -0.167069   -0.804920
  C      0.099352    0.640427   -0.717492
  Cl     1.278579   -0.128933    0.407022
  H     -1.358476   -0.596714    1.302881
  H     -2.236776    0.844092    0.787345
  H     -2.867646   -0.759856    0.404787
  H     -0.947165   -1.191727   -1.095871
  H     -1.793832    0.277647   -1.593067
  H     -0.082251    1.638765   -0.323392
  H      0.603762    0.699145   -1.679931

 Total Charge           Charge          ....    0
 Multiplicity           Mult            ....    1
 Number of Electrons    NEL             ....   42
 Basis Dimension        Dim             ....   74

ORBITAL ENERGIES
----------------

  NO   OCC          E(Eh)            E(eV)
   0   2.0000    -100.615872     -2737.8971
   1   2.0000      -9.939907      -270.4786
   2   2.0000      -9.898354      -269.3479
   3   2.0000      -9.877671      -268.7851
   4   2.0000      -9.151557      -249.0265
   5   2.0000      -6.983074      -190.0191
   6   2.0000      -6.971340      -189.6998
   7   2.0000      -6.971115      -189.6937
   8   2.0000      -0.775063       -21.0905
   9   2.0000      -0.692728       -18.8501
  10   2.0000      -0.604252       -16.4425
  11   2.0000      -0.525728       -14.3058
  12   2.0000      -0.426156       -11.5963
  13   2.0000      -0.419442       -11.4136
  14   2.0000      -0.381131       -10.3711
  15   2.0000      -0.356095        -9.6898
  16   2.0000      -0.321479        -8.7479
  17   2.0000      -0.315535        -8.5861
  18   2.0000      -0.303819        -8.2673
  19   2.0000      -0.245119        -6.6700
  20   2.0000      -0.242654        -6.6030
  21   0.0000       0.011468         0.3121
  22   0.0000       0.040322         1.0972
  23   0.0000       0.074472         2.0265
  24   0.0000       0.079302         2.1579
  25   0.0000       0.100694         2.7400

MULLIKEN ATOMIC CHARGES
-----------------------
   0 C :   -0.287592
   1 C :   -0.176495
   2 C :   -0.171267
   3 Cl:   -0.158101
   4 H :    0.113644
   5 H :    0.098777
   6 H :    0.108607
   7 H :    0.104049
   8 H :    0.097781
   9 H :    0.132905
  10 H :    0.137692
Sum of atomic charges:    0.0000000

LOEWDIN ATOMIC CHARGES
----------------------
   0 C :   -0.346954
   1 C :   -0.255468
   2 C :   -0.269205
   3 Cl:    0.017844
   4 H :    0.119278
   5 H :    0.117577
   6 H :    0.121828
   7 H :    0.122663
   8 H :    0.124674
   9 H :    0.123359
  10 H :    0.124403

  Mayer bond orders larger than 0.100000
B(  0-C ,  1-C ) :   1.1471 B(  0-C ,  4-H ) :   0.9484 B(  0-C ,  5-H ) :   0.9554
B(  0-C ,  6-H ) :   0.9539 B(  1-C ,  2-C ) :   1.1031 B(  1-C ,  7-H ) :   0.9240
B(  1-C ,  8-H ) :   0.9124 B(  2-C ,  3-Cl) :   1.0279 B(  2-C ,  9-H ) :   0.9285
B(  2-C , 10-H ) :   0.9323

Dispersion correction           -0.007217302
FINAL SINGLE POINT ENERGY      -578.087503546045

DIPOLE MOMENT
-------------

Method             : SCF
Type of density    : Electron Density
Multiplicity       :   1
Irrep              :   0
Energy             :  -578.1246095776666607 Eh
Relativity type    :
Basis              : AO
                                X                 Y                 Z
Electronic contribution:      9.350729315      -0.777094608       2.168980370
Nuclear contribution   :     -9.861643774       1.028055405      -2.607688796
                        -----------------------------------------
Total Dipole Moment    :     -0.510914460       0.250960797      -0.438708426
                        -----------------------------------------
Magnitude (a.u.)       :      0.718665423
Magnitude (Debye)      :      1.826702335

Rotational constants in cm-1:             0.396352             0.110837             0.095568
Rotational constants in MHz :         11882.337094          3322.807560          2865.064340

                             ****ORCA TERMINATED NORMALLY****
TOTAL RUN TIME: 0 days 0 hours 0 minutes 4 seconds 544 msec
