                         Program Version 6.0.0  -   RELEASE  -
|  1> ! r2scan-3c def2/J RI DEFGRID2 scfconv6 printgap
|  2> %output
|  3>     printlevel normal
|  4> end
|  5> * xyz 0 1
|  6> C -2.0096387871 1.2207474957 -0.3763895218
|  7> C -1.6496512181 -0.228601473 -0.0542956531
|  8> C -1.848786144 -0.5002760737 1.4360935281
|  9> C -0.2916969882 -0.6957248056 -0.6168894195
| 10> C 1.0692083009 -0.0970700887 -0.1971847419
| 11> C 1.2095496604 1.3804182401 -0.5702496556
| 12> C 1.3652450139 -0.2735845616 1.293525545
| 13> C 2.132240782 -0.8819110921 -0.9838595922
| 14> H -1.475734164 1.9144195907 0.266026372
| 15> H -1.7810064912 1.4565655047 -1.4124021508
| 16> H -3.075106981 1.3766021283 -0.2177971436
| 17> H -2.3771127122 -0.857809576 -0.5862193948
| 18> H -1.5112656173 -1.5000179039 1.6968757951
| 19> H -1.3123362736 0.2189872191 2.0470054004
| 20> H -2.9057831955 -0.4216290794 1.6835042329
| 21> H -0.2342948689 -1.7699123036 -0.4158234486
| 22> H -0.3577166646 -0.5832530643 -1.7034606964
| 23> H 2.2464006892 1.6910409465 -0.4564403168
| 24> H 0.6029974133 2.0120602605 0.0698522439
| 25> H 0.9157843234 1.5476294847 -1.6034818299
| 26> H 2.4126593734 -0.0511479743 1.4890388223
| 27> H 1.1697621745 -1.2956048128 1.6083446703
| 28> H 0.7661217292 0.3984266319 1.899369672
| 29> H 1.9757797819 -0.7752798986 -2.0550918268
| 30> H 2.0925562114 -1.9403854599 -0.7360286991
| 31> H 3.1286915258 -0.5149824631 -0.7480351935
| 32> *
| 33>
| 34>                          ****END OF INPUT****

CARTESIAN COORDINATES (ANGSTROEM)
---------------------------------
  C     -2.009639    1.220747   -0.376390
  C     -1.649651   -0.228601   -0.054296
  C     -1.848786   -0.500276    1.436094
  C     -0.291697   -0.695725   -0.616889
  C      1.069208   -0.097070   -0.197185
  C      1.209550    1.380418   -0.570250
  C      1.365245   -0.273585    1.293526
  C      2.132241   -0.881911   -0.983860
  H     -1.475734    1.914420    0.266026
  H     -1.781006    1.456566   -1.412402
  H     -3.075107    1.376602   -0.217797
  H     -2.377113   -0.857810   -0.586219
  H     -1.511266   -1.500018    1.696876
  H     -1.312336    0.218987    2.047005
  H     -2.905783   -0.421629    1.683504
  H     -0.234295   -1.769912   -0.415823
  H     -0.357717   -0.583253   -1.703461
  H      2.246401    1.691041   -0.456440
  H      0.602997    2.012060    0.069852
  H      0.915784    1.547629   -1.603482
  H      2.412659   -0.051148    1.489039
  H      1.169762   -1.295605    1.608345
  H      0.766122    0.398427    1.899370
  H      1.975780   -0.775280   -2.055092
  H      2.092556   -1.940385   -0.736029
  H      3.128692   -0.514982   -0.748035

 Total Charge           Charge          ....    0
 Multiplicity           Mult            ....    1
 Number of Electrons    NEL             ....   66
 Basis Dimension        Dim             ....  242

ORBITAL ENERGIES
----------------

  NO   OCC          E(Eh)            E(eV)
   0   2.0000     -10.039705      -273.1943
   1   2.0000     -10.031777      -272.9785
   2   2.0000     -10.018666      -272.6218
   3   2.0000     -10.011698      -272.4322
   4   2.0000     -10.011424      -272.4247
   5   2.0000     -10.011172      -272.4178
   6   2.0000     -10.010619      -272.4028
   7   2.0000     -10.010325      -272.3948
   8   2.0000      -0.793735       -21.5986
   9   2.0000      -0.750931       -20.4339
  10   2.0000      -0.654159       -17.8006
  11   2.0000      -0.653478       -17.7820
  12   2.0000      -0.640884       -17.4393
  13   2.0000      -0.640030       -17.4161
  14   2.0000      -0.536569       -14.6008
  15   2.0000      -0.486527       -13.2391
  16   2.0000      -0.434863       -11.8332
  17   2.0000      -0.424166       -11.5421
  18   2.0000      -0.412794       -11.2327
  19   2.0000      -0.394208       -10.7269
  20   2.0000      -0.389139       -10.5890
  21   2.0000      -0.383195       -10.4273
  22   2.0000      -0.363317        -9.8864
  23   2.0000      -0.348487        -9.4828
  24   2.0000      -0.340310        -9.2603
  25   2.0000      -0.329401        -8.9635
  26   2.0000      -0.321926        -8.7601
  27   2.0000      -0.321251        -8.7417
  28   2.0000      -0.302832        -8.2405
  29   2.0000      -0.294571        -8.0157
  30   2.0000      -0.283821        -7.7232
  31   2.0000      -0.275171        -7.4878
  32   2.0000      -0.260802        -7.0968
  33   0.0000       0.067683         1.8418
  34   0.0000       0.107347         2.9211
  35   0.0000       0.113136         3.0786
  36   0.0000       0.121087         3.2949
  37   0.0000       0.123485         3.3602

MULLIKEN ATOMIC CHARGES
-----------------------
   0 C :   -0.506049
   1 C :    0.003491
   2 C :   -0.501313
   3 C :   -0.330406
   4 C :    0.158614
   5 C :   -0.513247
   6 C :   -0.516805
   7 C :   -0.483260
   8 H :    0.144617
   9 H :    0.148258
  10 H :    0.145455
  11 H :    0.141806
  12 H :    0.147684
  13 H :    0.144262
  14 H :    0.145467
  15 H :    0.149899
  16 H :    0.150565
  17 H :    0.149028
  18 H :    0.148728
  19 H :    0.157761
  20 H :    0.149143
  21 H :    0.157644
  22 H :    0.148870
  23 H :    0.152656
  24 H :    0.152932
  25 H :    0.154200
Sum of atomic charges:    0.0000000

LOEWDIN ATOMIC CHARGES
----------------------
   0 C :   -0.416274
   1 C :   -0.239039
   2 C :   -0.416539
   3 C :   -0.294355
   4 C :   -0.205487
   5 C :   -0.405152
   6 C :   -0.404739
   7 C :   -0.411396
   8 H :    0.149380
   9 H :    0.153809
  10 H :    0.152441
  11 H :    0.156563
  12 H :    0.153458
  13 H :    0.149904
  14 H :    0.152362
  15 H :    0.163110
  16 H :    0.163051
  17 H :    0.155894
  18 H :    0.153778
  19 H :    0.156942
  20 H :    0.156001
  21 H :    0.157310
  22 H :    0.153262
  23 H :    0.156062
  24 H :    0.155891
  25 H :    0.153762

  Mayer bond orders larger than 0.100000
B(  0-C ,  1-C ) :   0.8944 B(  0-C ,  8-H ) :   0.9834 B(  0-C ,  9-H ) :   0.9767
B(  0-C , 10-H ) :   0.9668 B(  1-C ,  2-C ) :   0.9027 B(  1-C ,  3-C ) :   0.9415
B(  1-C , 11-H ) :   0.9659 B(  2-C , 12-H ) :   0.9787 B(  2-C , 13-H ) :   0.9811
B(  2-C , 14-H ) :   0.9671 B(  3-C ,  4-C ) :   0.8878 B(  3-C , 15-H ) :   0.9764
B(  3-C , 16-H ) :   0.9759 B(  4-C ,  5-C ) :   0.9162 B(  4-C ,  6-C ) :   0.9100
B(  4-C ,  7-C ) :   0.9319 B(  5-C , 17-H ) :   0.9706 B(  5-C , 18-H ) :   0.9700
B(  5-C , 19-H ) :   0.9797 B(  6-C , 20-H ) :   0.9700 B(  6-C , 21-H ) :   0.9775
B(  6-C , 22-H ) :   0.9732 B(  7-C , 23-H ) :   0.9752 B(  7-C , 24-H ) :   0.9753
B(  7-C , 25-H ) :   0.9786

Dispersion correction           -0.008227266
FINAL SINGLE POINT ENERGY      -315.581467733676

DIPOLE MOMENT
-------------

Method             : SCF
Type of density    : Electron Density
Multiplicity       :   1
Irrep              :   0
Energy             :  -315.5863303197617142 Eh
Relativity type    :
Basis              : AO
                                X                 Y                 Z
Electronic contribution:     -0.309482277      -0.886256769      -0.804882107
Nuclear contribution   :      0.263057008       0.849701651       0.774205231
                        -----------------------------------------
Total Dipole Moment    :     -0.046425270      -0.036555119      -0.030676877
                        -----------------------------------------
Magnitude (a.u.)       :      0.066578173
Magnitude (Debye)      :      0.169228267

Rotational constants in cm-1:             0.094108             0.044621             0.040297
Rotational constants in MHz :          2821.278258          1337.709649          1208.070663

                             ****ORCA TERMINATED NORMALLY****
TOTAL RUN TIME: 0 days 0 hours 0 minutes 28 seconds 802 msec
