                         Program Version 6.0.0  -   RELEASE  -
|  1> ! r2scan-3c def2/J RI DEFGRID2 scfconv6 printgap
|  2> %output
|  3>     printlevel normal
|  4> end
|  5> %cpcm
|  6>     smd true
|  7>     smdsolvent "water"
|  8> end
|  9> * xyz 0 1
| 10> C -2.0096387871 1.2207474957 -0.3763895218
| 11> C -1.6496512181 -0.228601473 -0.0542956531
| 12> C -1.848786144 -0.5002760737 1.4360935281
| 13> C -0.2916969882 -0.6957248056 -0.6168894195
| 14> C 1.0692083009 -0.0970700887 -0.1971847419
| 15> C 1.2095496604 1.3804182401 -0.5702496556
| 16> C 1.3652450139 -0.2735845616 1.293525545
| 17> C 2.132240782 -0.8819110921 -0.9838595922
| 18> H -1.475734164 1.9144195907 0.266026372
| 19> H -1.7810064912 1.4565655047 -1.4124021508
| 20> H -3.075106981 1.3766021283 -0.2177971436
| 21> H -2.3771127122 -0.857809576 -0.5862193948
| 22> H -1.5112656173 -1.5000179039 1.6968757951
| 23> H -1.3123362736 0.2189872191 2.0470054004
| 24> H -2.9057831955 -0.4216290794 1.6835042329
| 25> H -0.2342948689 -1.7699123036 -0.4158234486
| 26> H -0.3577166646 -0.5832530643 -1.7034606964
| 27> H 2.2464006892 1.6910409465 -0.4564403168
| 28> H 0.6029974133 2.0120602605 0.0698522439
| 29> H 0.9157843234 1.5476294847 -1.6034818299
| 30> H 2.4126593734 -0.0511479743 1.4890388223
| 31> H 1.1697621745 -1.2956048128 1.6083446703
| 32> H 0.7661217292 0.3984266319 1.899369672
| 33> H 1.9757797819 -0.7752798986 -2.0550918268
| 34> H 2.0925562114 -1.9403854599 -0.7360286991
| 35> H 3.1286915258 -0.5149824631 -0.7480351935
| 36> *
| 37>
| 38>                          ****END OF INPUT****

CARTESIAN COORDINATES (ANGSTROEM)
---------------------------------
  C     -2.009639    1.220747   -0.376390
  C     -1.649651   -0.228601   -0.054296
  C     -1.848786   -0.500276    1.436094
  C     -0.291697   -0.695725   -0.616889
  C      1.069208   -0.097070   -0.197185
  C      1.209550    1.380418   -0.570250
  C      1.365245   -0.273585    1.293526
  C      2.132241   -0.881911   -0.983860
  H     -1.475734    1.914420    0.266026
  H     -1.781006    1.456566   -1.412402
  H     -3.075107    1.376602   -0.217797
  H     -2.377113   -0.857810   -0.586219
  H     -1.511266   -1.500018    1.696876
  H     -1.312336    0.218987    2.047005
  H     -2.905783   -0.421629    1.683504
  H     -0.234295   -1.769912   -0.415823
  H     -0.357717   -0.583253   -1.703461
  H      2.246401    1.691041   -0.456440
  H      0.602997    2.012060    0.069852
  H      0.915784    1.547629   -1.603482
  H      2.412659   -0.051148    1.489039
  H      1.169762   -1.295605    1.608345
  H      0.766122    0.398427    1.899370
  H      1.975780   -0.775280   -2.055092
  H      2.092556   -1.940385   -0.736029
  H      3.128692   -0.514982   -0.748035

 Total Charge           Charge          ....    0
 Multiplicity           Mult            ....    1
 Number of Electrons    NEL             ....   66
 Basis Dimension        Dim             ....  242

ORBITAL ENERGIES
----------------

  NO   OCC          E(Eh)            E(eV)
   0   2.0000     -10.032126      -272.9880
   1   2.0000     -10.023633      -272.7569
   2   2.0000     -10.009725      -272.3785
   3   2.0000     -10.003354      -272.2051
   4   2.0000     -10.003310      -272.2039
   5   2.0000     -10.003169      -272.2001
   6   2.0000     -10.002318      -272.1769
   7   2.0000     -10.002098      -272.1709
   8   2.0000      -0.785566       -21.3763
   9   2.0000      -0.742903       -20.2154
  10   2.0000      -0.646558       -17.5937
  11   2.0000      -0.645657       -17.5692
  12   2.0000      -0.633386       -17.2353
  13   2.0000      -0.632383       -17.2080
  14   2.0000      -0.528799       -14.3894
  15   2.0000      -0.478935       -13.0325
  16   2.0000      -0.426642       -11.6095
  17   2.0000      -0.415855       -11.3160
  18   2.0000      -0.404837       -11.0162
  19   2.0000      -0.386243       -10.5102
  20   2.0000      -0.381184       -10.3726
  21   2.0000      -0.375365       -10.2142
  22   2.0000      -0.355174        -9.6648
  23   2.0000      -0.340765        -9.2727
  24   2.0000      -0.332448        -9.0464
  25   2.0000      -0.321293        -8.7428
  26   2.0000      -0.313887        -8.5413
  27   2.0000      -0.312884        -8.5140
  28   2.0000      -0.294941        -8.0258
  29   2.0000      -0.286907        -7.8071
  30   2.0000      -0.275706        -7.5023
  31   2.0000      -0.267122        -7.2688
  32   2.0000      -0.252518        -6.8714
  33   0.0000       0.077141         2.0991
  34   0.0000       0.115572         3.1449
  35   0.0000       0.120389         3.2760
  36   0.0000       0.127500         3.4695
  37   0.0000       0.130905         3.5621

MULLIKEN ATOMIC CHARGES
-----------------------
   0 C :   -0.554242
   1 C :    0.020020
   2 C :   -0.550467
   3 C :   -0.345504
   4 C :    0.217170
   5 C :   -0.569840
   6 C :   -0.572905
   7 C :   -0.536096
   8 H :    0.161095
   9 H :    0.157911
  10 H :    0.154920
  11 H :    0.147878
  12 H :    0.158005
  13 H :    0.160016
  14 H :    0.155016
  15 H :    0.157953
  16 H :    0.158802
  17 H :    0.159455
  18 H :    0.164266
  19 H :    0.169185
  20 H :    0.159448
  21 H :    0.168597
  22 H :    0.165222
  23 H :    0.163715
  24 H :    0.164070
  25 H :    0.166311
Sum of atomic charges:    0.0000000

LOEWDIN ATOMIC CHARGES
----------------------
   0 C :   -0.425566
   1 C :   -0.236864
   2 C :   -0.425912
   3 C :   -0.296625
   4 C :   -0.200332
   5 C :   -0.414417
   6 C :   -0.413977
   7 C :   -0.420693
   8 H :    0.153271
   9 H :    0.155607
  10 H :    0.153950
  11 H :    0.158224
  12 H :    0.155440
  13 H :    0.153495
  14 H :    0.153874
  15 H :    0.165109
  16 H :    0.165076
  17 H :    0.157563
  18 H :    0.157273
  19 H :    0.159084
  20 H :    0.157630
  21 H :    0.159336
  22 H :    0.157035
  23 H :    0.158046
  24 H :    0.157926
  25 H :    0.156447

  Mayer bond orders larger than 0.100000
B(  0-C ,  1-C ) :   0.8815 B(  0-C ,  8-H ) :   0.9818 B(  0-C ,  9-H ) :   0.9745
B(  0-C , 10-H ) :   0.9660 B(  1-C ,  2-C ) :   0.8889 B(  1-C ,  3-C ) :   0.9450
B(  1-C , 11-H ) :   0.9677 B(  2-C , 12-H ) :   0.9763 B(  2-C , 13-H ) :   0.9802
B(  2-C , 14-H ) :   0.9663 B(  3-C ,  4-C ) :   0.8840 B(  3-C , 15-H ) :   0.9756
B(  3-C , 16-H ) :   0.9751 B(  4-C ,  5-C ) :   0.8992 B(  4-C ,  6-C ) :   0.8938
B(  4-C ,  7-C ) :   0.9139 B(  5-C , 17-H ) :   0.9707 B(  5-C , 18-H ) :   0.9695
B(  5-C , 19-H ) :   0.9777 B(  6-C , 20-H ) :   0.9702 B(  6-C , 21-H ) :   0.9757
B(  6-C , 22-H ) :   0.9720 B(  7-C , 23-H ) :   0.9748 B(  7-C , 24-H ) :   0.9748
B(  7-C , 25-H ) :   0.9767

Dispersion correction           -0.008227266
FINAL SINGLE POINT ENERGY      -315.577782715368

DIPOLE MOMENT
-------------

Method             : SCF
Type of density    : Electron Density
Multiplicity       :   1
Irrep              :   0
Energy             :  -315.5826453014536810 Eh
Relativity type    :
Basis              : AO
                                X                 Y                 Z
Electronic contribution:     -0.319745084      -0.888596640      -0.806462185
Nuclear contribution   :      0.263057008       0.849701651       0.774205231
                        -----------------------------------------
Total Dipole Moment    :     -0.056688077      -0.038894989      -0.032256954
                        -----------------------------------------
Magnitude (a.u.)       :      0.075939906
Magnitude (Debye)      :      0.193023901

Rotational constants in cm-1:             0.094108             0.044621             0.040297
Rotational constants in MHz :          2821.278258          1337.709649          1208.070663

                             ****ORCA TERMINATED NORMALLY****
TOTAL RUN TIME: 0 days 0 hours 0 minutes 35 seconds 170 msec
