                         Program Version 6.0.0  -   RELEASE  -
|  1> ! wb97x-v def2-tzvp def2/J RIJCOSX DEFGRID2 scfconv7 GCP(DFT/TZ) printgap
|  2> %output
|  3>     printlevel normal
|  4> end
|  5> * xyz 0 1
|  6> C 2.193363264982743 0.0321484178432584 0.056573418162231895
|  7> O 0.9836627949958788 -0.395233721139147 -0.6454161668552051
|  8> S -0.44121677010856725 -0.06698595833881586 0.07716199563267036
|  9> O -0.3438011932838935 -0.3597880278675879 1.5154946493728894
| 10> O -1.4188977017376097 -0.7966382200556001 -0.7387568385680683
| 11> C -0.6439221701225378 1.694601768597671 -0.15869895355761837
| 12> H 2.233211338264741 1.1221506883284358 0.12256377379449462
| 13> H 3.010229186448207 -0.3319410870365133 -0.5656407352145824
| 14> H 2.2396257521555176 -0.42606343021049475 1.045841049842905
| 15> H -1.6312561381956792 1.950962207464219 0.23532658154431815
| 16> H 0.13424797373352582 2.2189828833651157 0.40016868328277017
| 17> H -0.5834331881010683 1.9083432553584327 -1.2278900967049802
| 18> *
| 19>
| 20>                          ****END OF INPUT****

CARTESIAN COORDINATES (ANGSTROEM)
---------------------------------
  C      2.193363    0.032148    0.056573
  O      0.983663   -0.395234   -0.645416
  S     -0.441217   -0.066986    0.077162
  O     -0.343801   -0.359788    1.515495
  O     -1.418898   -0.796638   -0.738757
  C     -0.643922    1.694602   -0.158699
  H      2.233211    1.122151    0.122564
  H      3.010229   -0.331941   -0.565641
  H      2.239626   -0.426063    1.045841
  H     -1.631256    1.950962    0.235327
  H      0.134248    2.218983    0.400169
  H     -0.583433    1.908343   -1.227890

 Total Charge           Charge          ....    0
 Multiplicity           Mult            ....    1
 Number of Electrons    NEL             ....   58
 Basis Dimension        Dim             ....  228

ORBITAL ENERGIES
----------------

  NO   OCC          E(Eh)            E(eV)
   0   2.0000     -94.352947     -2567.4742
   1   2.0000     -21.738996      -591.5481
   2   2.0000     -21.676877      -589.8578
   3   2.0000     -21.671639      -589.7153
   4   2.0000     -12.126653      -329.9830
   5   2.0000     -12.107367      -329.4582
   6   2.0000      -9.830370      -267.4980
   7   2.0000      -7.812728      -212.5951
   8   2.0000      -7.810180      -212.5258
   9   2.0000      -7.809768      -212.5146
  10   2.0000      -1.774694       -48.2919
  11   2.0000      -1.708430       -46.4887
  12   2.0000      -1.680850       -45.7383
  13   2.0000      -1.329532       -36.1784
  14   2.0000      -1.263085       -34.3703
  15   2.0000      -1.170371       -31.8474
  16   2.0000      -1.087503       -29.5925
  17   2.0000      -1.062601       -28.9148
  18   2.0000      -1.029853       -28.0237
  19   2.0000      -0.998972       -27.1834
  20   2.0000      -0.975586       -26.5470
  21   2.0000      -0.927268       -25.2322
  22   2.0000      -0.914084       -24.8735
  23   2.0000      -0.898351       -24.4454
  24   2.0000      -0.887599       -24.1528
  25   2.0000      -0.878907       -23.9163
  26   2.0000      -0.875160       -23.8143
  27   2.0000      -0.853109       -23.2143
  28   2.0000      -0.847097       -23.0507
  29   0.0000      -0.358530        -9.7561
  30   0.0000      -0.284580        -7.7438
  31   0.0000      -0.231765        -6.3067
  32   0.0000      -0.217779        -5.9261
  33   0.0000      -0.178240        -4.8502

MULLIKEN ATOMIC CHARGES
-----------------------
   0 C :   -0.203309
   1 O :   -0.256752
   2 S :    0.815585
   3 O :   -0.447834
   4 O :   -0.430975
   5 C :   -0.366215
   6 H :    0.110901
   7 H :    0.143914
   8 H :    0.160488
   9 H :    0.165992
  10 H :    0.144890
  11 H :    0.163316
Sum of atomic charges:   -0.0000000

LOEWDIN ATOMIC CHARGES
----------------------
   0 C :   -0.323077
   1 O :   -0.030731
   2 S :    0.649776
   3 O :   -0.305716
   4 O :   -0.295305
   5 C :   -0.402701
   6 H :    0.099448
   7 H :    0.116481
   8 H :    0.111916
   9 H :    0.132119
  10 H :    0.120539
  11 H :    0.127253

  Mayer bond orders larger than 0.100000
B(  0-C ,  1-O ) :   0.9035 B(  0-C ,  6-H ) :   0.9726 B(  0-C ,  7-H ) :   0.9702
B(  0-C ,  8-H ) :   0.9692 B(  1-O ,  2-S ) :   1.0724 B(  2-S ,  3-O ) :   1.8657
B(  2-S ,  4-O ) :   1.9487 B(  2-S ,  5-C ) :   0.9065 B(  5-C ,  9-H ) :   0.9486
B(  5-C , 10-H ) :   0.9472 B(  5-C , 11-H ) :   0.9481

FINAL SINGLE POINT ENERGY      -703.639785714499

DIPOLE MOMENT
-------------

Method             : SCF
Type of density    : Electron Density
Multiplicity       :   1
Irrep              :   0
Energy             :  -703.6493146534987773 Eh
Relativity type    :
Basis              : AO
                                X                 Y                 Z
Electronic contribution:     -4.015615832      -4.343626752      -0.011472822
Nuclear contribution   :      5.200720199       6.009733867      -0.162708583
                        -----------------------------------------
Total Dipole Moment    :      1.185104367       1.666107115      -0.174181405
                        -----------------------------------------
Magnitude (a.u.)       :      2.052004981
Magnitude (Debye)      :      5.215782156

Rotational constants in cm-1:             0.141515             0.085773             0.082545
Rotational constants in MHz :          4242.516313          2571.422601          2474.645709

                             ****ORCA TERMINATED NORMALLY****
TOTAL RUN TIME: 0 days 0 hours 1 minutes 12 seconds 798 msec
