                         Program Version 6.0.0  -   RELEASE  -
|  1> ! wb97x-v def2-tzvp def2/J RIJCOSX DEFGRID2 scfconv7 GCP(DFT/TZ) printgap
|  2> %output
|  3>     printlevel normal
|  4> end
|  5> %cpcm
|  6>     smd true
|  7>     smdsolvent "water"
|  8> end
|  9> * xyz 0 1
| 10> C 2.193363264982743 0.0321484178432584 0.056573418162231895
| 11> O 0.9836627949958788 -0.395233721139147 -0.6454161668552051
| 12> S -0.44121677010856725 -0.06698595833881586 0.07716199563267036
| 13> O -0.3438011932838935 -0.3597880278675879 1.5154946493728894
| 14> O -1.4188977017376097 -0.7966382200556001 -0.7387568385680683
| 15> C -0.6439221701225378 1.694601768597671 -0.15869895355761837
| 16> H 2.233211338264741 1.1221506883284358 0.12256377379449462
| 17> H 3.010229186448207 -0.3319410870365133 -0.5656407352145824
| 18> H 2.2396257521555176 -0.42606343021049475 1.045841049842905
| 19> H -1.6312561381956792 1.950962207464219 0.23532658154431815
| 20> H 0.13424797373352582 2.2189828833651157 0.40016868328277017
| 21> H -0.5834331881010683 1.9083432553584327 -1.2278900967049802
| 22> *
| 23>
| 24>                          ****END OF INPUT****

CARTESIAN COORDINATES (ANGSTROEM)
---------------------------------
  C      2.193363    0.032148    0.056573
  O      0.983663   -0.395234   -0.645416
  S     -0.441217   -0.066986    0.077162
  O     -0.343801   -0.359788    1.515495
  O     -1.418898   -0.796638   -0.738757
  C     -0.643922    1.694602   -0.158699
  H      2.233211    1.122151    0.122564
  H      3.010229   -0.331941   -0.565641
  H      2.239626   -0.426063    1.045841
  H     -1.631256    1.950962    0.235327
  H      0.134248    2.218983    0.400169
  H     -0.583433    1.908343   -1.227890

 Total Charge           Charge          ....    0
 Multiplicity           Mult            ....    1
 Number of Electrons    NEL             ....   58
 Basis Dimension        Dim             ....  228

ORBITAL ENERGIES
----------------

  NO   OCC          E(Eh)            E(eV)
   0   2.0000     -94.361141     -2567.6972
   1   2.0000     -21.736915      -591.4915
   2   2.0000     -21.689568      -590.2031
   3   2.0000     -21.687928      -590.1585
   4   2.0000     -12.103275      -329.3469
   5   2.0000     -12.085534      -328.8641
   6   2.0000      -9.838817      -267.7278
   7   2.0000      -7.820969      -212.8194
   8   2.0000      -7.818640      -212.7560
   9   2.0000      -7.818296      -212.7467
  10   2.0000      -1.784034       -48.5460
  11   2.0000      -1.712589       -46.6019
  12   2.0000      -1.697999       -46.2049
  13   2.0000      -1.325041       -36.0562
  14   2.0000      -1.248039       -33.9609
  15   2.0000      -1.167137       -31.7594
  16   2.0000      -1.090047       -29.6617
  17   2.0000      -1.079268       -29.3684
  18   2.0000      -1.027411       -27.9573
  19   2.0000      -0.994108       -27.0511
  20   2.0000      -0.975583       -26.5470
  21   2.0000      -0.942051       -25.6345
  22   2.0000      -0.927004       -25.2251
  23   2.0000      -0.915917       -24.9234
  24   2.0000      -0.877644       -23.8819
  25   2.0000      -0.862607       -23.4727
  26   2.0000      -0.861792       -23.4505
  27   2.0000      -0.835903       -22.7461
  28   2.0000      -0.827274       -22.5113
  29   0.0000      -0.361709        -9.8426
  30   0.0000      -0.291894        -7.9428
  31   0.0000      -0.230984        -6.2854
  32   0.0000      -0.215148        -5.8545
  33   0.0000      -0.164072        -4.4646

MULLIKEN ATOMIC CHARGES
-----------------------
   0 C :   -0.223851
   1 O :   -0.290802
   2 S :    0.865216
   3 O :   -0.517284
   4 O :   -0.519656
   5 C :   -0.386772
   6 H :    0.163178
   7 H :    0.168039
   8 H :    0.161639
   9 H :    0.194877
  10 H :    0.193833
  11 H :    0.191584
Sum of atomic charges:   -0.0000000

LOEWDIN ATOMIC CHARGES
----------------------
   0 C :   -0.310811
   1 O :   -0.044172
   2 S :    0.666122
   3 O :   -0.349334
   4 O :   -0.353953
   5 C :   -0.382419
   6 H :    0.115859
   7 H :    0.125072
   8 H :    0.113227
   9 H :    0.142037
  10 H :    0.138858
  11 H :    0.139515

  Mayer bond orders larger than 0.100000
B(  0-C ,  1-O ) :   0.8634 B(  0-C ,  6-H ) :   0.9664 B(  0-C ,  7-H ) :   0.9620
B(  0-C ,  8-H ) :   0.9681 B(  1-O ,  2-S ) :   1.1008 B(  2-S ,  3-O ) :   1.8132
B(  2-S ,  4-O ) :   1.8604 B(  2-S ,  5-C ) :   0.9324 B(  5-C ,  9-H ) :   0.9297
B(  5-C , 10-H ) :   0.9300 B(  5-C , 11-H ) :   0.9333

FINAL SINGLE POINT ENERGY      -703.658868528157

DIPOLE MOMENT
-------------

Method             : SCF
Type of density    : Electron Density
Multiplicity       :   1
Irrep              :   0
Energy             :  -703.6683974671574333 Eh
Relativity type    :
Basis              : AO
                                X                 Y                 Z
Electronic contribution:     -3.627955053      -3.704378223      -0.064687305
Nuclear contribution   :      5.200720199       6.009733867      -0.162708583
                        -----------------------------------------
Total Dipole Moment    :      1.572765146       2.305355644      -0.227395888
                        -----------------------------------------
Magnitude (a.u.)       :      2.799993525
Magnitude (Debye)      :      7.117017942

Rotational constants in cm-1:             0.141515             0.085773             0.082545
Rotational constants in MHz :          4242.516313          2571.422601          2474.645709

                             ****ORCA TERMINATED NORMALLY****
TOTAL RUN TIME: 0 days 0 hours 1 minutes 17 seconds 227 msec
