                         Program Version 6.0.0  -   RELEASE  -
|  1> ! pbe def2-sv(p) def2/J RI DEFGRID1 loosescf d4 GCP(DFT/SV(P)) printgap
|  2> %output
|  3>     printlevel normal
|  4> end
|  5> * xyz 0 1
|  6> C -2.0250523707 -0.211693686 -0.9987547678
|  7> C -1.3494027707 -0.1821911336 0.3813480911
|  8> H -2.1104267073 -0.3693705921 1.1508240275
|  9> C -0.7035168788 1.1739807137 0.6766693561
| 10> H -1.4270422136 1.9488122224 0.3919642517
| 11> C 0.5644266267 1.412799028 -0.1690830137
| 12> H 1.2332478133 2.0753830196 0.4008741109
| 13> C 1.3480453483 0.1110888952 -0.4106248511
| 14> H 1.1073012971 -0.2827206157 -1.4106241027
| 15> C 0.9260905294 -0.9559394257 0.608195545
| 16> H 1.1228994442 -0.5833892087 1.6314008873
| 17> O -0.4375937671 -1.2773586141 0.4708577423
| 18> O 1.6614539724 -2.0999820752 0.3455384095
| 19> O 2.7193925465 0.3970712164 -0.311226373
| 20> O 0.1652856548 2.0277841208 -1.36785603
| 21> O -0.43164661 1.2244590722 2.0576034133
| 22> O -2.6845437683 -1.432104894 -1.2184421955
| 23> H -1.2778996407 -0.0285260698 -1.780173278
| 24> H -2.7875206146 0.5661417034 -1.0534120005
| 25> H 1.3315288113 -2.8323126508 0.8878898843
| 26> H 3.2143569164 -0.4358422361 -0.3403234938
| 27> H 0.9495447297 2.30283967 -1.8650414592
| 28> H -0.2750182202 2.1393653427 2.3334547251
| 29> H -2.0636339337 -2.1489156413 -1.0191057521
| 30> *
| 31>
| 32>                          ****END OF INPUT****

CARTESIAN COORDINATES (ANGSTROEM)
---------------------------------
  C     -2.025052   -0.211694   -0.998755
  C     -1.349403   -0.182191    0.381348
  H     -2.110427   -0.369371    1.150824
  C     -0.703517    1.173981    0.676669
  H     -1.427042    1.948812    0.391964
  C      0.564427    1.412799   -0.169083
  H      1.233248    2.075383    0.400874
  C      1.348045    0.111089   -0.410625
  H      1.107301   -0.282721   -1.410624
  C      0.926091   -0.955939    0.608196
  H      1.122899   -0.583389    1.631401
  O     -0.437594   -1.277359    0.470858
  O      1.661454   -2.099982    0.345538
  O      2.719393    0.397071   -0.311226
  O      0.165286    2.027784   -1.367856
  O     -0.431647    1.224459    2.057603
  O     -2.684544   -1.432105   -1.218442
  H     -1.277900   -0.028526   -1.780173
  H     -2.787521    0.566142   -1.053412
  H      1.331529   -2.832313    0.887890
  H      3.214357   -0.435842   -0.340323
  H      0.949545    2.302840   -1.865041
  H     -0.275018    2.139365    2.333455
  H     -2.063634   -2.148916   -1.019106

 Total Charge           Charge          ....    0
 Multiplicity           Mult            ....    1
 Number of Electrons    NEL             ....   96
 Basis Dimension        Dim             ....  192

ORBITAL ENERGIES
----------------

  NO   OCC          E(Eh)            E(eV)
   0   2.0000     -18.767442      -510.6881
   1   2.0000     -18.767262      -510.6832
   2   2.0000     -18.762996      -510.5671
   3   2.0000     -18.760998      -510.5127
   4   2.0000     -18.753187      -510.3002
   5   2.0000     -18.732825      -509.7461
   6   2.0000      -9.982304      -271.6323
   7   2.0000      -9.952000      -270.8077
   8   2.0000      -9.947558      -270.6868
   9   2.0000      -9.942098      -270.5382
  10   2.0000      -9.939001      -270.4540
  11   2.0000      -9.921756      -269.9847
  12   2.0000      -0.983650       -26.7665
  13   2.0000      -0.946731       -25.7619
  14   2.0000      -0.938273       -25.5317
  15   2.0000      -0.926206       -25.2034
  16   2.0000      -0.918389       -24.9906
  17   2.0000      -0.903193       -24.5771
  18   2.0000      -0.708232       -19.2720
  19   2.0000      -0.687433       -18.7060
  20   2.0000      -0.612750       -16.6738
  21   2.0000      -0.590299       -16.0628
  22   2.0000      -0.568285       -15.4638
  23   2.0000      -0.522906       -14.2290
  24   2.0000      -0.503455       -13.6997
  25   2.0000      -0.483393       -13.1538
  26   2.0000      -0.477548       -12.9947
  27   2.0000      -0.463714       -12.6183
  28   2.0000      -0.444328       -12.0908
  29   2.0000      -0.439934       -11.9712
  30   2.0000      -0.407999       -11.1022
  31   2.0000      -0.394418       -10.7327
  32   2.0000      -0.382715       -10.4142
  33   2.0000      -0.374024       -10.1777
  34   2.0000      -0.367079        -9.9887
  35   2.0000      -0.349694        -9.5157
  36   2.0000      -0.328938        -8.9508
  37   2.0000      -0.322320        -8.7708
  38   2.0000      -0.313482        -8.5303
  39   2.0000      -0.290584        -7.9072
  40   2.0000      -0.277203        -7.5431
  41   2.0000      -0.265713        -7.2304
  42   2.0000      -0.249473        -6.7885
  43   2.0000      -0.241128        -6.5614
  44   2.0000      -0.236356        -6.4316
  45   2.0000      -0.226700        -6.1688
  46   2.0000      -0.208889        -5.6842
  47   2.0000      -0.197412        -5.3719
  48   0.0000       0.014295         0.3890
  49   0.0000       0.023951         0.6517
  50   0.0000       0.029199         0.7946
  51   0.0000       0.049838         1.3562
  52   0.0000       0.053151         1.4463

MULLIKEN ATOMIC CHARGES
-----------------------
   0 C :    0.061291
   1 C :    0.023151
   2 H :    0.075379
   3 C :   -0.010286
   4 H :    0.080159
   5 C :    0.127227
   6 H :    0.050886
   7 C :    0.002449
   8 H :    0.055339
   9 C :    0.200244
  10 H :    0.053847
  11 O :   -0.340483
  12 O :   -0.393927
  13 O :   -0.426124
  14 O :   -0.412472
  15 O :   -0.405154
  16 O :   -0.437991
  17 H :    0.085200
  18 H :    0.081288
  19 H :    0.311236
  20 H :    0.307862
  21 H :    0.310410
  22 H :    0.304965
  23 H :    0.295504
Sum of atomic charges:   -0.0000000

LOEWDIN ATOMIC CHARGES
----------------------
   0 C :   -0.134386
   1 C :   -0.059558
   2 H :    0.118072
   3 C :   -0.069608
   4 H :    0.115725
   5 C :   -0.065962
   6 H :    0.106718
   7 C :   -0.091125
   8 H :    0.105775
   9 C :   -0.010516
  10 H :    0.089618
  11 O :   -0.163836
  12 O :   -0.305410
  13 O :   -0.322888
  14 O :   -0.314936
  15 O :   -0.312200
  16 O :   -0.340223
  17 H :    0.099593
  18 H :    0.115172
  19 H :    0.293052
  20 H :    0.287013
  21 H :    0.293043
  22 H :    0.289139
  23 H :    0.277726

  Mayer bond orders larger than 0.100000
B(  0-C ,  1-C ) :   1.0602 B(  0-C , 16-O ) :   1.0673 B(  0-C , 17-H ) :   0.8963
B(  0-C , 18-H ) :   0.9147 B(  1-C ,  2-H ) :   0.8758 B(  1-C ,  3-C ) :   1.0322
B(  1-C , 11-O ) :   0.9672 B(  3-C ,  4-H ) :   0.8926 B(  3-C ,  5-C ) :   0.9956
B(  3-C , 15-O ) :   1.0418 B(  5-C ,  6-H ) :   0.8596 B(  5-C ,  7-C ) :   1.0069
B(  5-C , 14-O ) :   1.0666 B(  7-C ,  8-H ) :   0.8452 B(  7-C ,  9-C ) :   1.0724
B(  7-C , 13-O ) :   1.0680 B(  9-C , 10-H ) :   0.8738 B(  9-C , 11-O ) :   1.0185
B(  9-C , 12-O ) :   1.1546 B( 12-O , 19-H ) :   0.8388 B( 13-O , 20-H ) :   0.8355
B( 14-O , 21-H ) :   0.8445 B( 15-O , 22-H ) :   0.8461 B( 16-O , 23-H ) :   0.8407

Dispersion correction           -0.024663433
FINAL SINGLE POINT ENERGY      -685.690131650751

DIPOLE MOMENT
-------------

Method             : SCF
Type of density    : Electron Density
Multiplicity       :   1
Irrep              :   0
Energy             :  -685.8199092554984873 Eh
Relativity type    :
Basis              : AO
                                X                 Y                 Z
Electronic contribution:      1.712297994      -1.783429710       1.048951301
Nuclear contribution   :     -0.907203292       2.188887390      -0.631054200
                        -----------------------------------------
Total Dipole Moment    :      0.805094702       0.405457680       0.417897101
                        -----------------------------------------
Magnitude (a.u.)       :      0.993585123
Magnitude (Debye)      :      2.525492678

Rotational constants in cm-1:             0.035794             0.027369             0.022552
Rotational constants in MHz :          1073.079639           820.496006           676.090388

                             ****ORCA TERMINATED NORMALLY****
TOTAL RUN TIME: 0 days 0 hours 0 minutes 11 seconds 870 msec
