                         Program Version 6.0.0  -   RELEASE  -
|  1> ! r2scan-3c def2/J RI DEFGRID2 scfconv6 printgap
|  2> %output
|  3>     printlevel normal
|  4> end
|  5> * xyz 0 1
|  6> C 1.8945346945 -0.1052478928 -1.0676053666
|  7> O 1.2267063759 -0.2084176459 0.1919300798
|  8> S -0.3628134772 -0.0460912461 0.1795913046
|  9> O -0.7917966237 -0.4932156435 1.4804639912
| 10> O -0.8912879787 -0.7725355911 -0.9552514582
| 11> C -0.6576336175 1.7055678592 -0.0117605179
| 12> H 1.2283465702 -0.4669299438 -1.850919641
| 13> H 2.7804824853 -0.7328343529 -1.0049462097
| 14> H 2.1794779761 0.930670621 -1.2508073522
| 15> H -1.0845848946 2.0511210747 0.9184516942
| 16> H 0.2878873205 2.1891492743 -0.2093090052
| 17> H -1.3445214805 1.825503713 -0.8372754249
| 18> *
| 19>
| 20>                          ****END OF INPUT****

CARTESIAN COORDINATES (ANGSTROEM)
---------------------------------
  C      1.894535   -0.105248   -1.067605
  O      1.226706   -0.208418    0.191930
  S     -0.362813   -0.046091    0.179591
  O     -0.791797   -0.493216    1.480464
  O     -0.891288   -0.772536   -0.955251
  C     -0.657634    1.705568   -0.011761
  H      1.228347   -0.466930   -1.850920
  H      2.780482   -0.732834   -1.004946
  H      2.179478    0.930671   -1.250807
  H     -1.084585    2.051121    0.918452
  H      0.287887    2.189149   -0.209309
  H     -1.344521    1.825504   -0.837275

 Total Charge           Charge          ....    0
 Multiplicity           Mult            ....    1
 Number of Electrons    NEL             ....   58
 Basis Dimension        Dim             ....  167

ORBITAL ENERGIES
----------------

  NO   OCC          E(Eh)            E(eV)
   0   2.0000     -88.790724     -2416.1184
   1   2.0000     -19.015087      -517.4268
   2   2.0000     -18.948288      -515.6091
   3   2.0000     -18.946082      -515.5491
   4   2.0000     -10.105656      -274.9889
   5   2.0000     -10.084909      -274.4243
   6   2.0000      -8.057849      -219.2652
   7   2.0000      -6.005345      -163.4138
   8   2.0000      -6.001836      -163.3182
   9   2.0000      -6.001278      -163.3031
  10   2.0000      -1.119293       -30.4575
  11   2.0000      -1.018606       -27.7177
  12   2.0000      -0.976515       -26.5723
  13   2.0000      -0.762634       -20.7523
  14   2.0000      -0.707744       -19.2587
  15   2.0000      -0.583673       -15.8826
  16   2.0000      -0.517220       -14.0743
  17   2.0000      -0.477953       -13.0058
  18   2.0000      -0.471016       -12.8170
  19   2.0000      -0.445570       -12.1246
  20   2.0000      -0.436040       -11.8653
  21   2.0000      -0.424365       -11.5475
  22   2.0000      -0.402800       -10.9607
  23   2.0000      -0.356240        -9.6938
  24   2.0000      -0.326218        -8.8768
  25   2.0000      -0.301748        -8.2110
  26   2.0000      -0.292154        -7.9499
  27   2.0000      -0.287777        -7.8308
  28   2.0000      -0.271034        -7.3752
  29   0.0000       0.012719         0.3461
  30   0.0000       0.038899         1.0585
  31   0.0000       0.045340         1.2338
  32   0.0000       0.055400         1.5075
  33   0.0000       0.087212         2.3732

MULLIKEN ATOMIC CHARGES
-----------------------
   0 C :   -0.282895
   1 O :   -0.260884
   2 S :    1.059211
   3 O :   -0.524366
   4 O :   -0.555258
   5 C :   -0.510872
   6 H :    0.190085
   7 H :    0.163313
   8 H :    0.141105
   9 H :    0.203413
  10 H :    0.175941
  11 H :    0.201207
Sum of atomic charges:   -0.0000000

LOEWDIN ATOMIC CHARGES
----------------------
   0 C :   -0.053720
   1 O :   -0.610665
   2 S :    0.820998
   3 O :   -0.431730
   4 O :   -0.470403
   5 C :   -0.351163
   6 H :    0.189787
   7 H :    0.183581
   8 H :    0.160961
   9 H :    0.191778
  10 H :    0.181657
  11 H :    0.188919

  Mayer bond orders larger than 0.100000
B(  0-C ,  1-O ) :   0.8099 B(  0-C ,  6-H ) :   0.9614 B(  0-C ,  7-H ) :   0.9638
B(  0-C ,  8-H ) :   0.9602 B(  1-O ,  2-S ) :   0.9254 B(  2-S ,  3-O ) :   1.8000
B(  2-S ,  4-O ) :   1.6805 B(  2-S ,  5-C ) :   0.8522 B(  5-C ,  9-H ) :   0.9322
B(  5-C , 10-H ) :   0.9332 B(  5-C , 11-H ) :   0.9344

Dispersion correction           -0.003123519
FINAL SINGLE POINT ENERGY      -703.548633690221

DIPOLE MOMENT
-------------

Method             : SCF
Type of density    : Electron Density
Multiplicity       :   1
Irrep              :   0
Energy             :  -703.5653426135442032 Eh
Relativity type    :
Basis              : AO
                                X                 Y                 Z
Electronic contribution:     -2.917027976      -3.899620385       3.151024659
Nuclear contribution   :      3.800508634       5.417760046      -3.967501638
                        -----------------------------------------
Total Dipole Moment    :      0.883480658       1.518139661      -0.816476979
                        -----------------------------------------
Magnitude (a.u.)       :      1.936987548
Magnitude (Debye)      :      4.923431076

Rotational constants in cm-1:             0.145708             0.089194             0.084155
Rotational constants in MHz :          4368.229787          2673.975154          2522.914617

                             ****ORCA TERMINATED NORMALLY****
TOTAL RUN TIME: 0 days 0 hours 0 minutes 15 seconds 305 msec
