                         Program Version 6.0.0  -   RELEASE  -
|  1> ! r2scan-3c def2/J RI DEFGRID2 scfconv6 printgap
|  2> %output
|  3>     printlevel normal
|  4> end
|  5> %cpcm
|  6>     smd true
|  7>     smdsolvent "water"
|  8> end
|  9> * xyz 0 1
| 10> C 1.8945346945 -0.1052478928 -1.0676053666
| 11> O 1.2267063759 -0.2084176459 0.1919300798
| 12> S -0.3628134772 -0.0460912461 0.1795913046
| 13> O -0.7917966237 -0.4932156435 1.4804639912
| 14> O -0.8912879787 -0.7725355911 -0.9552514582
| 15> C -0.6576336175 1.7055678592 -0.0117605179
| 16> H 1.2283465702 -0.4669299438 -1.850919641
| 17> H 2.7804824853 -0.7328343529 -1.0049462097
| 18> H 2.1794779761 0.930670621 -1.2508073522
| 19> H -1.0845848946 2.0511210747 0.9184516942
| 20> H 0.2878873205 2.1891492743 -0.2093090052
| 21> H -1.3445214805 1.825503713 -0.8372754249
| 22> *
| 23>
| 24>                          ****END OF INPUT****

CARTESIAN COORDINATES (ANGSTROEM)
---------------------------------
  C      1.894535   -0.105248   -1.067605
  O      1.226706   -0.208418    0.191930
  S     -0.362813   -0.046091    0.179591
  O     -0.791797   -0.493216    1.480464
  O     -0.891288   -0.772536   -0.955251
  C     -0.657634    1.705568   -0.011761
  H      1.228347   -0.466930   -1.850920
  H      2.780482   -0.732834   -1.004946
  H      2.179478    0.930671   -1.250807
  H     -1.084585    2.051121    0.918452
  H      0.287887    2.189149   -0.209309
  H     -1.344521    1.825504   -0.837275

 Total Charge           Charge          ....    0
 Multiplicity           Mult            ....    1
 Number of Electrons    NEL             ....   58
 Basis Dimension        Dim             ....  167

ORBITAL ENERGIES
----------------

  NO   OCC          E(Eh)            E(eV)
   0   2.0000     -88.798951     -2416.3423
   1   2.0000     -19.014322      -517.4060
   2   2.0000     -18.962184      -515.9873
   3   2.0000     -18.961105      -515.9579
   4   2.0000     -10.084550      -274.4145
   5   2.0000     -10.064553      -273.8704
   6   2.0000      -8.066198      -219.4924
   7   2.0000      -6.013577      -163.6377
   8   2.0000      -6.010842      -163.5633
   9   2.0000      -6.009058      -163.5148
  10   2.0000      -1.127572       -30.6828
  11   2.0000      -1.022694       -27.8289
  12   2.0000      -0.992346       -27.0031
  13   2.0000      -0.750804       -20.4304
  14   2.0000      -0.694018       -18.8852
  15   2.0000      -0.576233       -15.6801
  16   2.0000      -0.514008       -13.9869
  17   2.0000      -0.480169       -13.0661
  18   2.0000      -0.472242       -12.8504
  19   2.0000      -0.433752       -11.8030
  20   2.0000      -0.425169       -11.5694
  21   2.0000      -0.404266       -11.0006
  22   2.0000      -0.399622       -10.8743
  23   2.0000      -0.353944        -9.6313
  24   2.0000      -0.336184        -9.1480
  25   2.0000      -0.306081        -8.3289
  26   2.0000      -0.300299        -8.1715
  27   2.0000      -0.292563        -7.9610
  28   2.0000      -0.287340        -7.8189
  29   0.0000       0.015833         0.4308
  30   0.0000       0.043535         1.1847
  31   0.0000       0.051051         1.3892
  32   0.0000       0.067525         1.8375
  33   0.0000       0.107281         2.9193

MULLIKEN ATOMIC CHARGES
-----------------------
   0 C :   -0.292944
   1 O :   -0.280770
   2 S :    1.047003
   3 O :   -0.588654
   4 O :   -0.602251
   5 C :   -0.502836
   6 H :    0.187310
   7 H :    0.186123
   8 H :    0.181123
   9 H :    0.221428
  10 H :    0.220932
  11 H :    0.223535
Sum of atomic charges:   -0.0000000

LOEWDIN ATOMIC CHARGES
----------------------
   0 C :   -0.043368
   1 O :   -0.621887
   2 S :    0.828084
   3 O :   -0.489037
   4 O :   -0.512542
   5 C :   -0.328689
   6 H :    0.190761
   7 H :    0.193121
   8 H :    0.179375
   9 H :    0.201335
  10 H :    0.202184
  11 H :    0.200661

  Mayer bond orders larger than 0.100000
B(  0-C ,  1-O ) :   0.7982 B(  0-C ,  6-H ) :   0.9553 B(  0-C ,  7-H ) :   0.9530
B(  0-C ,  8-H ) :   0.9502 B(  1-O ,  2-S ) :   0.9536 B(  2-S ,  3-O ) :   1.7321
B(  2-S ,  4-O ) :   1.6446 B(  2-S ,  5-C ) :   0.8986 B(  5-C ,  9-H ) :   0.9149
B(  5-C , 10-H ) :   0.9114 B(  5-C , 11-H ) :   0.9173

Dispersion correction           -0.003123519
FINAL SINGLE POINT ENERGY      -703.565241089755

DIPOLE MOMENT
-------------

Method             : SCF
Type of density    : Electron Density
Multiplicity       :   1
Irrep              :   0
Energy             :  -703.5819500130784263 Eh
Relativity type    :
Basis              : AO
                                X                 Y                 Z
Electronic contribution:     -2.605039850      -3.282327428       2.851133373
Nuclear contribution   :      3.800508634       5.417760046      -3.967501638
                        -----------------------------------------
Total Dipole Moment    :      1.195468784       2.135432618      -1.116368265
                        -----------------------------------------
Magnitude (a.u.)       :      2.689887764
Magnitude (Debye)      :      6.837151338

Rotational constants in cm-1:             0.145708             0.089194             0.084155
Rotational constants in MHz :          4368.229787          2673.975154          2522.914617

                             ****ORCA TERMINATED NORMALLY****
TOTAL RUN TIME: 0 days 0 hours 0 minutes 18 seconds 852 msec
