                         Program Version 6.0.0  -   RELEASE  -
|  1> ! r2scan-3c def2/J RI DEFGRID2 scfconv6 printgap
|  2> %output
|  3>     printlevel normal
|  4> end
|  5> * xyz 0 1
|  6> C -1.9844263165 -0.9431819298 -0.5796995377
|  7> C -1.4409276988 -0.0162995499 0.5059595248
|  8> C -0.0227719139 0.4153915734 0.2321849793
|  9> O 0.367932462 1.5643606954 0.2887192375
| 10> O 0.7622961664 -0.6136006241 -0.0548091496
| 11> C 2.1450110856 -0.3748312322 -0.3301729844
| 12> H -1.9968696038 -0.435752408 -1.5410670048
| 13> H -1.3643430826 -1.8310848107 -0.6613713087
| 14> H -2.9986554009 -1.2412910002 -0.3313608141
| 15> H -1.4409242573 -0.5390494507 1.464496159
| 16> H -2.0503782812 0.8826307107 0.5982246273
| 17> H 2.2981631592 -0.4082391303 -1.4083856817
| 18> H 2.7020931843 -1.1710528837 0.1570013942
| 19> H 2.4384537842 0.6020516165 0.0558544089
| 20> *
| 21>
| 22>                          ****END OF INPUT****

CARTESIAN COORDINATES (ANGSTROEM)
---------------------------------
  C     -1.984426   -0.943182   -0.579700
  C     -1.440928   -0.016300    0.505960
  C     -0.022772    0.415392    0.232185
  O      0.367932    1.564361    0.288719
  O      0.762296   -0.613601   -0.054809
  C      2.145011   -0.374831   -0.330173
  H     -1.996870   -0.435752   -1.541067
  H     -1.364343   -1.831085   -0.661371
  H     -2.998655   -1.241291   -0.331361
  H     -1.440924   -0.539049    1.464496
  H     -2.050378    0.882631    0.598225
  H      2.298163   -0.408239   -1.408386
  H      2.702093   -1.171053    0.157001
  H      2.438454    0.602052    0.055854

 Total Charge           Charge          ....    0
 Multiplicity           Mult            ....    1
 Number of Electrons    NEL             ....   48
 Basis Dimension        Dim             ....  164

ORBITAL ENERGIES
----------------

  NO   OCC          E(Eh)            E(eV)
   0   2.0000     -19.000391      -517.0269
   1   2.0000     -18.928216      -515.0630
   2   2.0000     -10.153549      -276.2921
   3   2.0000     -10.086637      -274.4714
   4   2.0000     -10.045361      -273.3482
   5   2.0000     -10.029368      -272.9130
   6   2.0000      -1.074180       -29.2299
   7   2.0000      -0.975821       -26.5534
   8   2.0000      -0.762440       -20.7471
   9   2.0000      -0.694924       -18.9098
  10   2.0000      -0.615287       -16.7428
  11   2.0000      -0.535653       -14.5759
  12   2.0000      -0.470838       -12.8122
  13   2.0000      -0.457025       -12.4363
  14   2.0000      -0.441875       -12.0240
  15   2.0000      -0.415052       -11.2942
  16   2.0000      -0.394996       -10.7484
  17   2.0000      -0.379188       -10.3182
  18   2.0000      -0.351812        -9.5733
  19   2.0000      -0.336951        -9.1689
  20   2.0000      -0.326003        -8.8710
  21   2.0000      -0.314384        -8.5548
  22   2.0000      -0.273294        -7.4367
  23   2.0000      -0.234772        -6.3885
  24   0.0000      -0.015105        -0.4110
  25   0.0000       0.064760         1.7622
  26   0.0000       0.096022         2.6129
  27   0.0000       0.121963         3.3188
  28   0.0000       0.125288         3.4093

MULLIKEN ATOMIC CHARGES
-----------------------
   0 C :   -0.462260
   1 C :   -0.294725
   2 C :    0.399110
   3 O :   -0.431365
   4 O :   -0.187862
   5 C :   -0.295047
   6 H :    0.149288
   7 H :    0.162723
   8 H :    0.148470
   9 H :    0.160054
  10 H :    0.168145
  11 H :    0.149736
  12 H :    0.147867
  13 H :    0.185867
Sum of atomic charges:   -0.0000000

LOEWDIN ATOMIC CHARGES
----------------------
   0 C :   -0.397064
   1 C :   -0.235102
   2 C :    0.356728
   3 O :   -0.435541
   4 O :   -0.608023
   5 C :   -0.044370
   6 H :    0.155839
   7 H :    0.163739
   8 H :    0.151840
   9 H :    0.177847
  10 H :    0.175640
  11 H :    0.172428
  12 H :    0.174609
  13 H :    0.191429

  Mayer bond orders larger than 0.100000
B(  0-C ,  1-C ) :   0.8925 B(  0-C ,  6-H ) :   0.9753 B(  0-C ,  7-H ) :   0.9734
B(  0-C ,  8-H ) :   0.9705 B(  1-C ,  2-C ) :   0.9992 B(  1-C ,  9-H ) :   0.9398
B(  1-C , 10-H ) :   0.9832 B(  2-C ,  3-O ) :   1.8544 B(  2-C ,  4-O ) :   1.0482
B(  4-O ,  5-C ) :   0.8408 B(  5-C , 11-H ) :   0.9607 B(  5-C , 12-H ) :   0.9687
B(  5-C , 13-H ) :   0.9674

Dispersion correction           -0.003007265
FINAL SINGLE POINT ENERGY      -307.630054353189

DIPOLE MOMENT
-------------

Method             : SCF
Type of density    : Electron Density
Multiplicity       :   1
Irrep              :   0
Energy             :  -307.6365449727303485 Eh
Relativity type    :
Basis              : AO
                                X                 Y                 Z
Electronic contribution:      2.266562939       3.020295842       1.441091906
Nuclear contribution   :     -2.246517461      -3.871591479      -1.560092737
                        -----------------------------------------
Total Dipole Moment    :      0.020045478      -0.851295637      -0.119000831
                        -----------------------------------------
Magnitude (a.u.)       :      0.859806537
Magnitude (Debye)      :      2.185454536

Rotational constants in cm-1:             0.203610             0.087518             0.066412
Rotational constants in MHz :          6104.067815          2623.715547          1990.968070

                             ****ORCA TERMINATED NORMALLY****
TOTAL RUN TIME: 0 days 0 hours 0 minutes 16 seconds 729 msec
