                         Program Version 6.0.0  -   RELEASE  -
|  1> ! r2scan-3c def2/J RI DEFGRID2 scfconv6 printgap
|  2> %output
|  3>     printlevel normal
|  4> end
|  5> %cpcm
|  6>     smd true
|  7>     smdsolvent "water"
|  8> end
|  9> * xyz 0 1
| 10> C -1.9844263165 -0.9431819298 -0.5796995377
| 11> C -1.4409276988 -0.0162995499 0.5059595248
| 12> C -0.0227719139 0.4153915734 0.2321849793
| 13> O 0.367932462 1.5643606954 0.2887192375
| 14> O 0.7622961664 -0.6136006241 -0.0548091496
| 15> C 2.1450110856 -0.3748312322 -0.3301729844
| 16> H -1.9968696038 -0.435752408 -1.5410670048
| 17> H -1.3643430826 -1.8310848107 -0.6613713087
| 18> H -2.9986554009 -1.2412910002 -0.3313608141
| 19> H -1.4409242573 -0.5390494507 1.464496159
| 20> H -2.0503782812 0.8826307107 0.5982246273
| 21> H 2.2981631592 -0.4082391303 -1.4083856817
| 22> H 2.7020931843 -1.1710528837 0.1570013942
| 23> H 2.4384537842 0.6020516165 0.0558544089
| 24> *
| 25>
| 26>                          ****END OF INPUT****

CARTESIAN COORDINATES (ANGSTROEM)
---------------------------------
  C     -1.984426   -0.943182   -0.579700
  C     -1.440928   -0.016300    0.505960
  C     -0.022772    0.415392    0.232185
  O      0.367932    1.564361    0.288719
  O      0.762296   -0.613601   -0.054809
  C      2.145011   -0.374831   -0.330173
  H     -1.996870   -0.435752   -1.541067
  H     -1.364343   -1.831085   -0.661371
  H     -2.998655   -1.241291   -0.331361
  H     -1.440924   -0.539049    1.464496
  H     -2.050378    0.882631    0.598225
  H      2.298163   -0.408239   -1.408386
  H      2.702093   -1.171053    0.157001
  H      2.438454    0.602052    0.055854

 Total Charge           Charge          ....    0
 Multiplicity           Mult            ....    1
 Number of Electrons    NEL             ....   48
 Basis Dimension        Dim             ....  164

ORBITAL ENERGIES
----------------

  NO   OCC          E(Eh)            E(eV)
   0   2.0000     -19.004386      -517.1356
   1   2.0000     -18.942980      -515.4647
   2   2.0000     -10.162838      -276.5449
   3   2.0000     -10.075645      -274.1722
   4   2.0000     -10.038256      -273.1548
   5   2.0000     -10.019160      -272.6352
   6   2.0000      -1.079727       -29.3809
   7   2.0000      -0.988586       -26.9008
   8   2.0000      -0.756858       -20.5952
   9   2.0000      -0.687956       -18.7202
  10   2.0000      -0.608193       -16.5498
  11   2.0000      -0.532488       -14.4897
  12   2.0000      -0.469049       -12.7635
  13   2.0000      -0.458191       -12.4680
  14   2.0000      -0.449703       -12.2370
  15   2.0000      -0.411535       -11.1984
  16   2.0000      -0.387300       -10.5390
  17   2.0000      -0.377068       -10.2605
  18   2.0000      -0.347777        -9.4635
  19   2.0000      -0.329618        -8.9694
  20   2.0000      -0.323092        -8.7918
  21   2.0000      -0.312112        -8.4930
  22   2.0000      -0.279223        -7.5980
  23   2.0000      -0.249775        -6.7967
  24   0.0000      -0.021930        -0.5967
  25   0.0000       0.071154         1.9362
  26   0.0000       0.103501         2.8164
  27   0.0000       0.133333         3.6282
  28   0.0000       0.135267         3.6808

MULLIKEN ATOMIC CHARGES
-----------------------
   0 C :   -0.493915
   1 C :   -0.306162
   2 C :    0.439078
   3 O :   -0.519426
   4 O :   -0.202375
   5 C :   -0.313533
   6 H :    0.164311
   7 H :    0.165890
   8 H :    0.166435
   9 H :    0.190914
  10 H :    0.174168
  11 H :    0.177686
  12 H :    0.174875
  13 H :    0.182055
Sum of atomic charges:   -0.0000000

LOEWDIN ATOMIC CHARGES
----------------------
   0 C :   -0.399071
   1 C :   -0.232780
   2 C :    0.366925
   3 O :   -0.498792
   4 O :   -0.608016
   5 C :   -0.039572
   6 H :    0.159981
   7 H :    0.163954
   8 H :    0.158644
   9 H :    0.190019
  10 H :    0.178893
  11 H :    0.183118
  12 H :    0.186400
  13 H :    0.190297

  Mayer bond orders larger than 0.100000
B(  0-C ,  1-C ) :   0.8814 B(  0-C ,  6-H ) :   0.9726 B(  0-C ,  7-H ) :   0.9722
B(  0-C ,  8-H ) :   0.9659 B(  1-C ,  2-C ) :   0.9990 B(  1-C ,  9-H ) :   0.9289
B(  1-C , 10-H ) :   0.9786 B(  2-C ,  3-O ) :   1.7848 B(  2-C ,  4-O ) :   1.0791
B(  4-O ,  5-C ) :   0.8265 B(  5-C , 11-H ) :   0.9523 B(  5-C , 12-H ) :   0.9591
B(  5-C , 13-H ) :   0.9641

Dispersion correction           -0.003007265
FINAL SINGLE POINT ENERGY      -307.634725713673

DIPOLE MOMENT
-------------

Method             : SCF
Type of density    : Electron Density
Multiplicity       :   1
Irrep              :   0
Energy             :  -307.6412163332142882 Eh
Relativity type    :
Basis              : AO
                                X                 Y                 Z
Electronic contribution:      2.242482705       2.681440430       1.410948022
Nuclear contribution   :     -2.246517461      -3.871591479      -1.560092737
                        -----------------------------------------
Total Dipole Moment    :     -0.004034756      -1.190151049      -0.149144715
                        -----------------------------------------
Magnitude (a.u.)       :      1.199466525
Magnitude (Debye)      :      3.048801614

Rotational constants in cm-1:             0.203610             0.087518             0.066412
Rotational constants in MHz :          6104.067815          2623.715547          1990.968070

                             ****ORCA TERMINATED NORMALLY****
TOTAL RUN TIME: 0 days 0 hours 0 minutes 21 seconds 190 msec
