                         Program Version 6.0.0  -   RELEASE  -
|  1> ! pbe def2-sv(p) def2/J RI DEFGRID1 loosescf d4 GCP(DFT/SV(P)) printgap
|  2> %output
|  3>     printlevel normal
|  4> end
|  5> * xyz 0 1
|  6> C -2.3986576262 -1.1866217565 -0.2076365246
|  7> C -1.0805103646 -0.6259978614 0.3616155983
|  8> H -1.1160009028 -0.5938288562 1.463167723
|  9> C -0.8022161977 0.807697057 -0.1181208095
| 10> H -0.9619190668 0.8693360334 -1.2040119975
| 11> C 0.6467516028 1.2185421677 0.183732544
| 12> H 0.7579955416 1.3351001144 1.2746616723
| 13> C 1.6348196509 0.1467587396 -0.2772344775
| 14> H 1.5865152962 0.0471971452 -1.3719001049
| 15> C 1.2240284984 -1.2000947846 0.3347061015
| 16> H 1.2729474948 -1.1216254132 1.442326689
| 17> O -0.0849884082 -1.5387688042 -0.0558821296
| 18> O 2.0848780293 -2.1719648795 -0.1350628441
| 19> O 2.9182859105 0.5381061844 0.1362932913
| 20> O 0.8741937958 2.4501117462 -0.455452831
| 21> O -1.6912355069 1.65464153 0.56629201
| 22> O -3.4354263055 -0.2553034286 -0.3355681807
| 23> H -2.7107630026 -2.0355006867 0.4155021992
| 24> H -2.192038129 -1.5570283142 -1.2150946531
| 25> H 1.703914859 -3.0500844771 0.020926294
| 26> H 3.5481367842 -0.1635453656 -0.085850819
| 27> H 1.8085386552 2.6831730448 -0.3506075192
| 28> H -1.5301508947 2.5650059662 0.2769748047
| 29> H -3.4897026321 0.2847065113 0.4670800791
| 30> *
| 31>
| 32>                          ****END OF INPUT****

CARTESIAN COORDINATES (ANGSTROEM)
---------------------------------
  C     -2.398658   -1.186622   -0.207637
  C     -1.080510   -0.625998    0.361616
  H     -1.116001   -0.593829    1.463168
  C     -0.802216    0.807697   -0.118121
  H     -0.961919    0.869336   -1.204012
  C      0.646752    1.218542    0.183733
  H      0.757996    1.335100    1.274662
  C      1.634820    0.146759   -0.277234
  H      1.586515    0.047197   -1.371900
  C      1.224028   -1.200095    0.334706
  H      1.272947   -1.121625    1.442327
  O     -0.084988   -1.538769   -0.055882
  O      2.084878   -2.171965   -0.135063
  O      2.918286    0.538106    0.136293
  O      0.874194    2.450112   -0.455453
  O     -1.691236    1.654642    0.566292
  O     -3.435426   -0.255303   -0.335568
  H     -2.710763   -2.035501    0.415502
  H     -2.192038   -1.557028   -1.215095
  H      1.703915   -3.050084    0.020926
  H      3.548137   -0.163545   -0.085851
  H      1.808539    2.683173   -0.350608
  H     -1.530151    2.565006    0.276975
  H     -3.489703    0.284707    0.467080

 Total Charge           Charge          ....    0
 Multiplicity           Mult            ....    1
 Number of Electrons    NEL             ....   96
 Basis Dimension        Dim             ....  192

ORBITAL ENERGIES
----------------

  NO   OCC          E(Eh)            E(eV)
   0   2.0000     -18.779617      -511.0194
   1   2.0000     -18.771732      -510.8048
   2   2.0000     -18.761987      -510.5396
   3   2.0000     -18.758303      -510.4394
   4   2.0000     -18.755744      -510.3697
   5   2.0000     -18.737801      -509.8815
   6   2.0000      -9.991830      -271.8915
   7   2.0000      -9.948772      -270.7198
   8   2.0000      -9.944541      -270.6047
   9   2.0000      -9.943132      -270.5664
  10   2.0000      -9.942584      -270.5515
  11   2.0000      -9.928512      -270.1685
  12   2.0000      -0.992409       -27.0048
  13   2.0000      -0.949523       -25.8378
  14   2.0000      -0.941329       -25.6149
  15   2.0000      -0.923766       -25.1369
  16   2.0000      -0.920923       -25.0596
  17   2.0000      -0.912000       -24.8168
  18   2.0000      -0.705459       -19.1965
  19   2.0000      -0.695453       -18.9242
  20   2.0000      -0.615037       -16.7360
  21   2.0000      -0.588076       -16.0024
  22   2.0000      -0.563042       -15.3212
  23   2.0000      -0.528544       -14.3824
  24   2.0000      -0.517517       -14.0824
  25   2.0000      -0.487222       -13.2580
  26   2.0000      -0.473200       -12.8764
  27   2.0000      -0.464168       -12.6307
  28   2.0000      -0.444008       -12.0821
  29   2.0000      -0.439153       -11.9500
  30   2.0000      -0.421412       -11.4672
  31   2.0000      -0.409834       -11.1522
  32   2.0000      -0.381045       -10.3688
  33   2.0000      -0.378030       -10.2867
  34   2.0000      -0.356074        -9.6893
  35   2.0000      -0.351542        -9.5659
  36   2.0000      -0.331810        -9.0290
  37   2.0000      -0.326184        -8.8759
  38   2.0000      -0.309293        -8.4163
  39   2.0000      -0.297661        -8.0998
  40   2.0000      -0.287957        -7.8357
  41   2.0000      -0.267429        -7.2771
  42   2.0000      -0.256624        -6.9831
  43   2.0000      -0.245817        -6.6890
  44   2.0000      -0.233389        -6.3508
  45   2.0000      -0.226754        -6.1703
  46   2.0000      -0.212276        -5.7763
  47   2.0000      -0.204346        -5.5605
  48   0.0000       0.013796         0.3754
  49   0.0000       0.021339         0.5807
  50   0.0000       0.039980         1.0879
  51   0.0000       0.050879         1.3845
  52   0.0000       0.060821         1.6550

MULLIKEN ATOMIC CHARGES
-----------------------
   0 C :    0.091528
   1 C :   -0.014514
   2 H :    0.055500
   3 C :    0.061694
   4 H :    0.067607
   5 C :    0.067896
   6 H :    0.053056
   7 C :    0.042288
   8 H :    0.061088
   9 C :    0.178107
  10 H :    0.036511
  11 O :   -0.311546
  12 O :   -0.389484
  13 O :   -0.426748
  14 O :   -0.426448
  15 O :   -0.428708
  16 O :   -0.432868
  17 H :    0.074296
  18 H :    0.086630
  19 H :    0.312779
  20 H :    0.313270
  21 H :    0.312580
  22 H :    0.314491
  23 H :    0.300994
Sum of atomic charges:    0.0000000

LOEWDIN ATOMIC CHARGES
----------------------
   0 C :   -0.121495
   1 C :   -0.066224
   2 H :    0.101538
   3 C :   -0.065791
   4 H :    0.112946
   5 C :   -0.074679
   6 H :    0.103985
   7 C :   -0.092082
   8 H :    0.108521
   9 C :   -0.003541
  10 H :    0.080129
  11 O :   -0.147471
  12 O :   -0.302650
  13 O :   -0.322004
  14 O :   -0.324624
  15 O :   -0.315189
  16 O :   -0.332061
  17 H :    0.095834
  18 H :    0.115107
  19 H :    0.294320
  20 H :    0.292589
  21 H :    0.291423
  22 H :    0.293586
  23 H :    0.277831

  Mayer bond orders larger than 0.100000
B(  0-C ,  1-C ) :   1.0470 B(  0-C , 16-O ) :   1.1063 B(  0-C , 17-H ) :   0.9247
B(  0-C , 18-H ) :   0.9112 B(  1-C ,  2-H ) :   0.8726 B(  1-C ,  3-C ) :   1.0070
B(  1-C , 11-O ) :   0.9934 B(  3-C ,  4-H ) :   0.8775 B(  3-C ,  5-C ) :   1.0282
B(  3-C , 15-O ) :   1.0309 B(  5-C ,  6-H ) :   0.8704 B(  5-C ,  7-C ) :   1.0030
B(  5-C , 14-O ) :   1.0870 B(  7-C ,  8-H ) :   0.8665 B(  7-C ,  9-C ) :   0.9906
B(  7-C , 13-O ) :   1.0656 B(  9-C , 10-H ) :   0.8851 B(  9-C , 11-O ) :   1.0099
B(  9-C , 12-O ) :   1.1651 B( 12-O , 19-H ) :   0.8358 B( 13-O , 20-H ) :   0.8369
B( 14-O , 21-H ) :   0.8358 B( 15-O , 22-H ) :   0.8349 B( 16-O , 23-H ) :   0.8299

Dispersion correction           -0.023842097
FINAL SINGLE POINT ENERGY      -685.700687885511

DIPOLE MOMENT
-------------

Method             : SCF
Type of density    : Electron Density
Multiplicity       :   1
Irrep              :   0
Energy             :  -685.8314617829921644 Eh
Relativity type    :
Basis              : AO
                                X                 Y                 Z
Electronic contribution:      2.000929729       0.410789896      -0.549552521
Nuclear contribution   :     -1.230892252      -0.681493065       1.058971447
                        -----------------------------------------
Total Dipole Moment    :      0.770037477      -0.270703170       0.509418926
                        -----------------------------------------
Magnitude (a.u.)       :      0.962156725
Magnitude (Debye)      :      2.445608040

Rotational constants in cm-1:             0.043816             0.024830             0.016702
Rotational constants in MHz :          1313.582621           744.376712           500.698500

                             ****ORCA TERMINATED NORMALLY****
TOTAL RUN TIME: 0 days 0 hours 0 minutes 12 seconds 183 msec
