                         Program Version 6.0.0  -   RELEASE  -
|  1> ! r2scan-3c def2/J RI DEFGRID2 scfconv6 printgap
|  2> %output
|  3>     printlevel normal
|  4> end
|  5> * xyz 0 1
|  6> C -3.4283640023 0.5473221115 0.0881943489
|  7> C -1.9326209348 0.4761240636 0.1091152647
|  8> C -1.150570358 1.5158013551 -0.1458560455
|  9> C 0.3457719682 1.477814998 -0.1507519892
| 10> C 0.8542760546 0.0388537767 -0.2600519364
| 11> H 0.5601350315 -0.3482826615 -1.242381856
| 12> C 0.1191548479 -0.8020250432 0.7895812551
| 13> C -1.3616941847 -0.8919582176 0.4122189409
| 14> H -1.9249749546 -1.3273614832 1.2559772885
| 15> O -1.5712710202 -1.7001456457 -0.7400724118
| 16> C 2.3520267582 -0.0766295756 -0.132523404
| 17> C 3.067783179 -0.6895436725 -1.0635056666
| 18> C 2.9932926314 0.5139313261 1.0870557766
| 19> H -3.8304486889 0.3366758683 1.0788638084
| 20> H -3.8159561677 -0.2045994722 -0.5976701778
| 21> H -3.7672124405 1.5291692993 -0.2294283429
| 22> H -1.5972097365 2.4792951995 -0.352985014
| 23> H 0.7247750341 2.0731370297 -0.98463774
| 24> H 0.7079994158 1.9376497672 0.7733358411
| 25> H 0.551170902 -1.8039062287 0.8424585608
| 26> H 0.1980319916 -0.3372960291 1.7729916235
| 27> H -1.2396855562 -2.5906235507 -0.5641395191
| 28> H 4.1367525195 -0.7964553472 -0.9829434741
| 29> H 2.6154012302 -1.1080824546 -1.947086931
| 30> H 2.4601651435 0.2172620317 1.9872633855
| 31> H 4.0271479735 0.1892581416 1.1675886212
| 32> H 2.9821535957 1.6013770527 1.0299650441
| 33> *
| 34>
| 35>                          ****END OF INPUT****

CARTESIAN COORDINATES (ANGSTROEM)
---------------------------------
  C     -3.428364    0.547322    0.088194
  C     -1.932621    0.476124    0.109115
  C     -1.150570    1.515801   -0.145856
  C      0.345772    1.477815   -0.150752
  C      0.854276    0.038854   -0.260052
  H      0.560135   -0.348283   -1.242382
  C      0.119155   -0.802025    0.789581
  C     -1.361694   -0.891958    0.412219
  H     -1.924975   -1.327361    1.255977
  O     -1.571271   -1.700146   -0.740072
  C      2.352027   -0.076630   -0.132523
  C      3.067783   -0.689544   -1.063506
  C      2.993293    0.513931    1.087056
  H     -3.830449    0.336676    1.078864
  H     -3.815956   -0.204599   -0.597670
  H     -3.767212    1.529169   -0.229428
  H     -1.597210    2.479295   -0.352985
  H      0.724775    2.073137   -0.984638
  H      0.707999    1.937650    0.773336
  H      0.551171   -1.803906    0.842459
  H      0.198032   -0.337296    1.772992
  H     -1.239686   -2.590624   -0.564140
  H      4.136753   -0.796455   -0.982943
  H      2.615401   -1.108082   -1.947087
  H      2.460165    0.217262    1.987263
  H      4.027148    0.189258    1.167589
  H      2.982154    1.601377    1.029965

 Total Charge           Charge          ....    0
 Multiplicity           Mult            ....    1
 Number of Electrons    NEL             ....   84
 Basis Dimension        Dim             ....  294

ORBITAL ENERGIES
----------------

  NO   OCC          E(Eh)            E(eV)
   0   2.0000     -18.948426      -515.6129
   1   2.0000     -10.084228      -274.4058
   2   2.0000     -10.036507      -273.1073
   3   2.0000     -10.033533      -273.0263
   4   2.0000     -10.030492      -272.9436
   5   2.0000     -10.030399      -272.9410
   6   2.0000     -10.029036      -272.9040
   7   2.0000     -10.024136      -272.7706
   8   2.0000     -10.023650      -272.7574
   9   2.0000     -10.018081      -272.6058
  10   2.0000     -10.008884      -272.3556
  11   2.0000      -0.986208       -26.8361
  12   2.0000      -0.812602       -22.1120
  13   2.0000      -0.770074       -20.9548
  14   2.0000      -0.720386       -19.6027
  15   2.0000      -0.703743       -19.1498
  16   2.0000      -0.654954       -17.8222
  17   2.0000      -0.641638       -17.4598
  18   2.0000      -0.590663       -16.0728
  19   2.0000      -0.570171       -15.5151
  20   2.0000      -0.500144       -13.6096
  21   2.0000      -0.486121       -13.2280
  22   2.0000      -0.464267       -12.6333
  23   2.0000      -0.446350       -12.1458
  24   2.0000      -0.421704       -11.4751
  25   2.0000      -0.414606       -11.2820
  26   2.0000      -0.403482       -10.9793
  27   2.0000      -0.388410       -10.5692
  28   2.0000      -0.383534       -10.4365
  29   2.0000      -0.379095       -10.3157
  30   2.0000      -0.371631       -10.1126
  31   2.0000      -0.368650       -10.0315
  32   2.0000      -0.337807        -9.1922
  33   2.0000      -0.336729        -9.1629
  34   2.0000      -0.329602        -8.9689
  35   2.0000      -0.314121        -8.5477
  36   2.0000      -0.295967        -8.0537
  37   2.0000      -0.293358        -7.9827
  38   2.0000      -0.271785        -7.3956
  39   2.0000      -0.240206        -6.5363
  40   2.0000      -0.221794        -6.0353
  41   2.0000      -0.217170        -5.9095
  42   0.0000      -0.013039        -0.3548
  43   0.0000      -0.001208        -0.0329
  44   0.0000       0.062850         1.7102
  45   0.0000       0.085839         2.3358
  46   0.0000       0.095081         2.5873

MULLIKEN ATOMIC CHARGES
-----------------------
   0 C :   -0.547937
   1 C :    0.071451
   2 C :   -0.190468
   3 C :   -0.352436
   4 C :   -0.019236
   5 H :    0.200623
   6 C :   -0.405777
   7 C :    0.044997
   8 H :    0.138975
   9 O :   -0.424646
  10 C :    0.091902
  11 C :   -0.383108
  12 C :   -0.554519
  13 H :    0.152722
  14 H :    0.176257
  15 H :    0.148339
  16 H :    0.151030
  17 H :    0.161530
  18 H :    0.164486
  19 H :    0.163804
  20 H :    0.164208
  21 H :    0.285875
  22 H :    0.136428
  23 H :    0.144854
  24 H :    0.161762
  25 H :    0.151422
  26 H :    0.167462
Sum of atomic charges:    0.0000000

LOEWDIN ATOMIC CHARGES
----------------------
   0 C :   -0.386166
   1 C :   -0.094257
   2 C :   -0.176093
   3 C :   -0.267632
   4 C :   -0.195658
   5 H :    0.183895
   6 C :   -0.255125
   7 C :    0.079274
   8 H :    0.171459
   9 O :   -0.606751
  10 C :   -0.119657
  11 C :   -0.323977
  12 C :   -0.396235
  13 H :    0.159241
  14 H :    0.170636
  15 H :    0.157515
  16 H :    0.164043
  17 H :    0.168560
  18 H :    0.168804
  19 H :    0.165435
  20 H :    0.167573
  21 H :    0.268061
  22 H :    0.154586
  23 H :    0.158278
  24 H :    0.160226
  25 H :    0.160411
  26 H :    0.163556

  Mayer bond orders larger than 0.100000
B(  0-C ,  1-C ) :   0.8234 B(  0-C , 13-H ) :   0.9718 B(  0-C , 14-H ) :   0.9700
B(  0-C , 15-H ) :   0.9972 B(  1-C ,  2-C ) :   1.8719 B(  1-C ,  7-C ) :   0.9562
B(  2-C ,  3-C ) :   0.9366 B(  2-C , 16-H ) :   0.9208 B(  3-C ,  4-C ) :   0.9122
B(  3-C , 17-H ) :   0.9646 B(  3-C , 18-H ) :   0.9713 B(  4-C ,  5-H ) :   1.0047
B(  4-C ,  6-C ) :   0.8512 B(  4-C , 10-C ) :   0.8632 B(  6-C ,  7-C ) :   0.9436
B(  6-C , 19-H ) :   0.9810 B(  6-C , 20-H ) :   0.9876 B(  7-C ,  8-H ) :   0.9760
B(  7-C ,  9-O ) :   0.9348 B(  9-O , 21-H ) :   0.9017 B( 10-C , 11-C ) :   1.8696
B( 10-C , 12-C ) :   0.8645 B( 11-C , 22-H ) :   0.9695 B( 11-C , 23-H ) :   0.9904
B( 12-C , 24-H ) :   0.9787 B( 12-C , 25-H ) :   0.9801 B( 12-C , 26-H ) :   0.9698

Dispersion correction           -0.009594741
FINAL SINGLE POINT ENERGY      -465.757837578394

DIPOLE MOMENT
-------------

Method             : SCF
Type of density    : Electron Density
Multiplicity       :   1
Irrep              :   0
Energy             :  -465.7598497957487780 Eh
Relativity type    :
Basis              : AO
                                X                 Y                 Z
Electronic contribution:     -2.482359079      -1.793663719      -2.221500362
Nuclear contribution   :      2.592538429       1.707786265       2.810252973
                        -----------------------------------------
Total Dipole Moment    :      0.110179350      -0.085877454       0.588752612
                        -----------------------------------------
Magnitude (a.u.)       :      0.605098392
Magnitude (Debye)      :      1.538037883

Rotational constants in cm-1:             0.071505             0.022930             0.020050
Rotational constants in MHz :          2143.662749           687.414675           601.085930

                             ****ORCA TERMINATED NORMALLY****
TOTAL RUN TIME: 0 days 0 hours 0 minutes 43 seconds 453 msec
