                         Program Version 6.0.0  -   RELEASE  -
|  1> ! r2scan-3c def2/J RI DEFGRID2 scfconv6 printgap
|  2> %output
|  3>     printlevel normal
|  4> end
|  5> %cpcm
|  6>     smd true
|  7>     smdsolvent "water"
|  8> end
|  9> * xyz 0 1
| 10> C -3.4283640023 0.5473221115 0.0881943489
| 11> C -1.9326209348 0.4761240636 0.1091152647
| 12> C -1.150570358 1.5158013551 -0.1458560455
| 13> C 0.3457719682 1.477814998 -0.1507519892
| 14> C 0.8542760546 0.0388537767 -0.2600519364
| 15> H 0.5601350315 -0.3482826615 -1.242381856
| 16> C 0.1191548479 -0.8020250432 0.7895812551
| 17> C -1.3616941847 -0.8919582176 0.4122189409
| 18> H -1.9249749546 -1.3273614832 1.2559772885
| 19> O -1.5712710202 -1.7001456457 -0.7400724118
| 20> C 2.3520267582 -0.0766295756 -0.132523404
| 21> C 3.067783179 -0.6895436725 -1.0635056666
| 22> C 2.9932926314 0.5139313261 1.0870557766
| 23> H -3.8304486889 0.3366758683 1.0788638084
| 24> H -3.8159561677 -0.2045994722 -0.5976701778
| 25> H -3.7672124405 1.5291692993 -0.2294283429
| 26> H -1.5972097365 2.4792951995 -0.352985014
| 27> H 0.7247750341 2.0731370297 -0.98463774
| 28> H 0.7079994158 1.9376497672 0.7733358411
| 29> H 0.551170902 -1.8039062287 0.8424585608
| 30> H 0.1980319916 -0.3372960291 1.7729916235
| 31> H -1.2396855562 -2.5906235507 -0.5641395191
| 32> H 4.1367525195 -0.7964553472 -0.9829434741
| 33> H 2.6154012302 -1.1080824546 -1.947086931
| 34> H 2.4601651435 0.2172620317 1.9872633855
| 35> H 4.0271479735 0.1892581416 1.1675886212
| 36> H 2.9821535957 1.6013770527 1.0299650441
| 37> *
| 38>
| 39>                          ****END OF INPUT****

CARTESIAN COORDINATES (ANGSTROEM)
---------------------------------
  C     -3.428364    0.547322    0.088194
  C     -1.932621    0.476124    0.109115
  C     -1.150570    1.515801   -0.145856
  C      0.345772    1.477815   -0.150752
  C      0.854276    0.038854   -0.260052
  H      0.560135   -0.348283   -1.242382
  C      0.119155   -0.802025    0.789581
  C     -1.361694   -0.891958    0.412219
  H     -1.924975   -1.327361    1.255977
  O     -1.571271   -1.700146   -0.740072
  C      2.352027   -0.076630   -0.132523
  C      3.067783   -0.689544   -1.063506
  C      2.993293    0.513931    1.087056
  H     -3.830449    0.336676    1.078864
  H     -3.815956   -0.204599   -0.597670
  H     -3.767212    1.529169   -0.229428
  H     -1.597210    2.479295   -0.352985
  H      0.724775    2.073137   -0.984638
  H      0.707999    1.937650    0.773336
  H      0.551171   -1.803906    0.842459
  H      0.198032   -0.337296    1.772992
  H     -1.239686   -2.590624   -0.564140
  H      4.136753   -0.796455   -0.982943
  H      2.615401   -1.108082   -1.947087
  H      2.460165    0.217262    1.987263
  H      4.027148    0.189258    1.167589
  H      2.982154    1.601377    1.029965

 Total Charge           Charge          ....    0
 Multiplicity           Mult            ....    1
 Number of Electrons    NEL             ....   84
 Basis Dimension        Dim             ....  294

ORBITAL ENERGIES
----------------

  NO   OCC          E(Eh)            E(eV)
   0   2.0000     -18.949908      -515.6532
   1   2.0000     -10.079111      -274.2666
   2   2.0000     -10.037241      -273.1272
   3   2.0000     -10.029764      -272.9237
   4   2.0000     -10.028602      -272.8921
   5   2.0000     -10.023912      -272.7645
   6   2.0000     -10.021275      -272.6928
   7   2.0000     -10.020002      -272.6581
   8   2.0000     -10.014961      -272.5210
   9   2.0000     -10.014295      -272.5028
  10   2.0000     -10.005530      -272.2643
  11   2.0000      -0.986987       -26.8573
  12   2.0000      -0.809019       -22.0145
  13   2.0000      -0.768047       -20.8996
  14   2.0000      -0.716771       -19.5043
  15   2.0000      -0.698076       -18.9956
  16   2.0000      -0.649436       -17.6721
  17   2.0000      -0.638925       -17.3860
  18   2.0000      -0.586233       -15.9522
  19   2.0000      -0.565582       -15.3903
  20   2.0000      -0.496102       -13.4996
  21   2.0000      -0.482649       -13.1336
  22   2.0000      -0.459912       -12.5149
  23   2.0000      -0.442311       -12.0359
  24   2.0000      -0.415891       -11.3170
  25   2.0000      -0.411281       -11.1915
  26   2.0000      -0.399565       -10.8727
  27   2.0000      -0.383408       -10.4331
  28   2.0000      -0.376956       -10.2575
  29   2.0000      -0.374063       -10.1788
  30   2.0000      -0.368161       -10.0182
  31   2.0000      -0.363158        -9.8820
  32   2.0000      -0.335231        -9.1221
  33   2.0000      -0.330385        -8.9902
  34   2.0000      -0.326510        -8.8848
  35   2.0000      -0.311196        -8.4681
  36   2.0000      -0.293340        -7.9822
  37   2.0000      -0.288426        -7.8485
  38   2.0000      -0.268165        -7.2971
  39   2.0000      -0.242392        -6.5958
  40   2.0000      -0.222280        -6.0485
  41   2.0000      -0.217411        -5.9161
  42   0.0000      -0.011940        -0.3249
  43   0.0000      -0.000822        -0.0224
  44   0.0000       0.075207         2.0465
  45   0.0000       0.096975         2.6388
  46   0.0000       0.102746         2.7959

MULLIKEN ATOMIC CHARGES
-----------------------
   0 C :   -0.568762
   1 C :    0.013849
   2 C :   -0.225269
   3 C :   -0.352568
   4 C :   -0.005575
   5 H :    0.196303
   6 C :   -0.421534
   7 C :    0.079121
   8 H :    0.160136
   9 O :   -0.506732
  10 C :    0.046332
  11 C :   -0.459817
  12 C :   -0.573031
  13 H :    0.174331
  14 H :    0.172975
  15 H :    0.167424
  16 H :    0.175465
  17 H :    0.173931
  18 H :    0.186626
  19 H :    0.178528
  20 H :    0.186413
  21 H :    0.341121
  22 H :    0.162230
  23 H :    0.165600
  24 H :    0.181581
  25 H :    0.166495
  26 H :    0.184828
Sum of atomic charges:    0.0000000

LOEWDIN ATOMIC CHARGES
----------------------
   0 C :   -0.394062
   1 C :   -0.109679
   2 C :   -0.184186
   3 C :   -0.269166
   4 C :   -0.198987
   5 H :    0.179362
   6 C :   -0.252463
   7 C :    0.081854
   8 H :    0.181809
   9 O :   -0.640139
  10 C :   -0.119995
  11 C :   -0.353293
  12 C :   -0.401424
  13 H :    0.166756
  14 H :    0.168071
  15 H :    0.163006
  16 H :    0.171982
  17 H :    0.171885
  18 H :    0.177158
  19 H :    0.172093
  20 H :    0.175293
  21 H :    0.287046
  22 H :    0.160944
  23 H :    0.162864
  24 H :    0.168315
  25 H :    0.164215
  26 H :    0.170739

  Mayer bond orders larger than 0.100000
B(  0-C ,  1-C ) :   0.8350 B(  0-C , 13-H ) :   0.9657 B(  0-C , 14-H ) :   0.9676
B(  0-C , 15-H ) :   0.9914 B(  1-C ,  2-C ) :   1.8677 B(  1-C ,  7-C ) :   0.9332
B(  2-C ,  3-C ) :   0.9197 B(  2-C , 16-H ) :   0.9293 B(  3-C ,  4-C ) :   0.8932
B(  3-C , 17-H ) :   0.9642 B(  3-C , 18-H ) :   0.9673 B(  4-C ,  5-H ) :   1.0088
B(  4-C ,  6-C ) :   0.8338 B(  4-C , 10-C ) :   0.8471 B(  6-C ,  7-C ) :   0.9388
B(  6-C , 19-H ) :   0.9714 B(  6-C , 20-H ) :   0.9883 B(  7-C ,  8-H ) :   0.9668
B(  7-C ,  9-O ) :   0.9161 B(  9-O , 21-H ) :   0.8758 B( 10-C , 11-C ) :   1.8512
B( 10-C , 12-C ) :   0.8815 B( 11-C , 22-H ) :   0.9701 B( 11-C , 23-H ) :   0.9880
B( 12-C , 24-H ) :   0.9702 B( 12-C , 25-H ) :   0.9766 B( 12-C , 26-H ) :   0.9613

Dispersion correction           -0.009594741
FINAL SINGLE POINT ENERGY      -465.765159967840

DIPOLE MOMENT
-------------

Method             : SCF
Type of density    : Electron Density
Multiplicity       :   1
Irrep              :   0
Energy             :  -465.7671721851940561 Eh
Relativity type    :
Basis              : AO
                                X                 Y                 Z
Electronic contribution:     -2.404574038      -1.795990572      -1.795932045
Nuclear contribution   :      2.592538429       1.707786265       2.810252973
                        -----------------------------------------
Total Dipole Moment    :      0.187964391      -0.088204308       1.014320929
                        -----------------------------------------
Magnitude (a.u.)       :      1.035353832
Magnitude (Debye)      :      2.631660301

Rotational constants in cm-1:             0.071505             0.022930             0.020050
Rotational constants in MHz :          2143.662749           687.414675           601.085930

                             ****ORCA TERMINATED NORMALLY****
TOTAL RUN TIME: 0 days 0 hours 0 minutes 57 seconds 671 msec
