                         Program Version 6.0.0  -   RELEASE  -
|  1> ! wb97x-v def2-tzvp def2/J RIJCOSX DEFGRID2 scfconv7 GCP(DFT/TZ) printgap
|  2> %output
|  3>     printlevel normal
|  4> end
|  5> * xyz 0 1
|  6> C -2.218745956277376 0.27690033616460547 -0.2915177802263516
|  7> C -1.0035539645294287 0.20526412430472923 0.6412869692794667
|  8> C 0.0019015534869791862 -0.7978075491643855 0.16319527348895843
|  9> C 1.2741002645730428 -0.582633754576343 -0.19080309517839522
| 10> C 2.0196224214656553 0.713881052806975 -0.18107536413713846
| 11> H -2.694315651134736 -0.7050583875026358 -0.3900198566585716
| 12> H -1.922360692450071 0.6083733413452542 -1.2922820712688283
| 13> H -2.9674065523584368 0.977437390654734 0.09211881122313711
| 14> H -0.5555020494173968 1.1981902347176285 0.7422577243012363
| 15> H -1.348673359604641 -0.08903849598605494 1.6421109264920308
| 16> H -0.3761910658013098 -1.818430581620991 0.08445510551034693
| 17> H 1.8526384451143734 -1.4432352381220936 -0.5276019381910853
| 18> H 2.421020573260344 0.9327895109121025 -1.178681071776079
| 19> H 2.885090661216812 0.6551913088179245 0.4916117413007963
| 20> H 1.4038028101832214 1.5604032635678482 0.1315998983234038
| 21> *
| 22>
| 23>                          ****END OF INPUT****

CARTESIAN COORDINATES (ANGSTROEM)
---------------------------------
  C     -2.218746    0.276900   -0.291518
  C     -1.003554    0.205264    0.641287
  C      0.001902   -0.797808    0.163195
  C      1.274100   -0.582634   -0.190803
  C      2.019622    0.713881   -0.181075
  H     -2.694316   -0.705058   -0.390020
  H     -1.922361    0.608373   -1.292282
  H     -2.967407    0.977437    0.092119
  H     -0.555502    1.198190    0.742258
  H     -1.348673   -0.089038    1.642111
  H     -0.376191   -1.818431    0.084455
  H      1.852638   -1.443235   -0.527602
  H      2.421021    0.932790   -1.178681
  H      2.885091    0.655191    0.491612
  H      1.403803    1.560403    0.131600

 Total Charge           Charge          ....    0
 Multiplicity           Mult            ....    1
 Number of Electrons    NEL             ....   40
 Basis Dimension        Dim             ....  215

ORBITAL ENERGIES
----------------

  NO   OCC          E(Eh)            E(eV)
   0   2.0000     -12.043913      -327.7315
   1   2.0000     -12.042791      -327.7010
   2   2.0000     -12.039109      -327.6008
   3   2.0000     -12.038347      -327.5801
   4   2.0000     -12.034845      -327.4848
   5   2.0000      -1.318679       -35.8831
   6   2.0000      -1.256223       -34.1836
   7   2.0000      -1.182807       -32.1858
   8   2.0000      -1.104227       -30.0475
   9   2.0000      -0.989165       -26.9165
  10   2.0000      -0.917942       -24.9785
  11   2.0000      -0.885178       -24.0869
  12   2.0000      -0.855977       -23.2923
  13   2.0000      -0.829914       -22.5831
  14   2.0000      -0.822040       -22.3689
  15   2.0000      -0.811372       -22.0786
  16   2.0000      -0.799094       -21.7445
  17   2.0000      -0.769959       -20.9517
  18   2.0000      -0.759187       -20.6585
  19   2.0000      -0.637009       -17.3339
  20   0.0000      -0.192557        -5.2397
  21   0.0000      -0.031436        -0.8554
  22   0.0000      -0.004400        -0.1197
  23   0.0000       0.003671         0.0999
  24   0.0000       0.009935         0.2704

MULLIKEN ATOMIC CHARGES
-----------------------
   0 C :   -0.336129
   1 C :   -0.111287
   2 C :   -0.167214
   3 C :   -0.133158
   4 C :   -0.300757
   5 H :    0.104911
   6 H :    0.109676
   7 H :    0.110711
   8 H :    0.081771
   9 H :    0.095480
  10 H :    0.106253
  11 H :    0.106230
  12 H :    0.115812
  13 H :    0.116647
  14 H :    0.101052
Sum of atomic charges:    0.0000000

LOEWDIN ATOMIC CHARGES
----------------------
   0 C :   -0.300940
   1 C :   -0.275624
   2 C :   -0.186226
   3 C :   -0.206249
   4 C :   -0.291343
   5 H :    0.116121
   6 H :    0.117287
   7 H :    0.114579
   8 H :    0.131028
   9 H :    0.137537
  10 H :    0.139832
  11 H :    0.137487
  12 H :    0.124141
  13 H :    0.124666
  14 H :    0.117703

  Mayer bond orders larger than 0.100000
B(  0-C ,  1-C ) :   0.9707 B(  0-C ,  5-H ) :   0.9829 B(  0-C ,  6-H ) :   0.9786
B(  0-C ,  7-H ) :   0.9797 B(  1-C ,  2-C ) :   0.9597 B(  1-C ,  8-H ) :   0.9835
B(  1-C ,  9-H ) :   0.9716 B(  2-C ,  3-C ) :   1.9742 B(  2-C , 10-H ) :   0.9576
B(  3-C ,  4-C ) :   0.9572 B(  3-C , 11-H ) :   0.9639 B(  4-C , 12-H ) :   0.9718
B(  4-C , 13-H ) :   0.9710 B(  4-C , 14-H ) :   0.9896

FINAL SINGLE POINT ENERGY      -196.536606289690

DIPOLE MOMENT
-------------

Method             : SCF
Type of density    : Electron Density
Multiplicity       :   1
Irrep              :   0
Energy             :  -196.5462216913896327 Eh
Relativity type    :
Basis              : AO
                                X                 Y                 Z
Electronic contribution:      1.167967022      -1.704500737       0.411663259
Nuclear contribution   :     -1.163673189       1.803828705      -0.390906983
                        -----------------------------------------
Total Dipole Moment    :      0.004293833       0.099327968       0.020756276
                        -----------------------------------------
Magnitude (a.u.)       :      0.101564291
Magnitude (Debye)      :      0.258155911

Rotational constants in cm-1:             0.371037             0.086107             0.078801
Rotational constants in MHz :         11123.398428          2581.432314          2362.407922

                             ****ORCA TERMINATED NORMALLY****
TOTAL RUN TIME: 0 days 0 hours 1 minutes 6 seconds 538 msec
