                         Program Version 6.0.0  -   RELEASE  -
|  1> ! wb97x-v def2-tzvp def2/J RIJCOSX DEFGRID2 scfconv7 GCP(DFT/TZ) printgap
|  2> %output
|  3>     printlevel normal
|  4> end
|  5> %cpcm
|  6>     smd true
|  7>     smdsolvent "water"
|  8> end
|  9> * xyz 0 1
| 10> C -2.218745956277376 0.27690033616460547 -0.2915177802263516
| 11> C -1.0035539645294287 0.20526412430472923 0.6412869692794667
| 12> C 0.0019015534869791862 -0.7978075491643855 0.16319527348895843
| 13> C 1.2741002645730428 -0.582633754576343 -0.19080309517839522
| 14> C 2.0196224214656553 0.713881052806975 -0.18107536413713846
| 15> H -2.694315651134736 -0.7050583875026358 -0.3900198566585716
| 16> H -1.922360692450071 0.6083733413452542 -1.2922820712688283
| 17> H -2.9674065523584368 0.977437390654734 0.09211881122313711
| 18> H -0.5555020494173968 1.1981902347176285 0.7422577243012363
| 19> H -1.348673359604641 -0.08903849598605494 1.6421109264920308
| 20> H -0.3761910658013098 -1.818430581620991 0.08445510551034693
| 21> H 1.8526384451143734 -1.4432352381220936 -0.5276019381910853
| 22> H 2.421020573260344 0.9327895109121025 -1.178681071776079
| 23> H 2.885090661216812 0.6551913088179245 0.4916117413007963
| 24> H 1.4038028101832214 1.5604032635678482 0.1315998983234038
| 25> *
| 26>
| 27>                          ****END OF INPUT****

CARTESIAN COORDINATES (ANGSTROEM)
---------------------------------
  C     -2.218746    0.276900   -0.291518
  C     -1.003554    0.205264    0.641287
  C      0.001902   -0.797808    0.163195
  C      1.274100   -0.582634   -0.190803
  C      2.019622    0.713881   -0.181075
  H     -2.694316   -0.705058   -0.390020
  H     -1.922361    0.608373   -1.292282
  H     -2.967407    0.977437    0.092119
  H     -0.555502    1.198190    0.742258
  H     -1.348673   -0.089038    1.642111
  H     -0.376191   -1.818431    0.084455
  H      1.852638   -1.443235   -0.527602
  H      2.421021    0.932790   -1.178681
  H      2.885091    0.655191    0.491612
  H      1.403803    1.560403    0.131600

 Total Charge           Charge          ....    0
 Multiplicity           Mult            ....    1
 Number of Electrons    NEL             ....   40
 Basis Dimension        Dim             ....  215

ORBITAL ENERGIES
----------------

  NO   OCC          E(Eh)            E(eV)
   0   2.0000     -12.040125      -327.6285
   1   2.0000     -12.036965      -327.5425
   2   2.0000     -12.035510      -327.5029
   3   2.0000     -12.030809      -327.3750
   4   2.0000     -12.027758      -327.2919
   5   2.0000      -1.315388       -35.7935
   6   2.0000      -1.250465       -34.0269
   7   2.0000      -1.177494       -32.0412
   8   2.0000      -1.098579       -29.8938
   9   2.0000      -0.983924       -26.7739
  10   2.0000      -0.913385       -24.8545
  11   2.0000      -0.880004       -23.9461
  12   2.0000      -0.849526       -23.1168
  13   2.0000      -0.823488       -22.4083
  14   2.0000      -0.815199       -22.1827
  15   2.0000      -0.805256       -21.9121
  16   2.0000      -0.792130       -21.5549
  17   2.0000      -0.763674       -20.7806
  18   2.0000      -0.752751       -20.4834
  19   2.0000      -0.636012       -17.3068
  20   0.0000      -0.191122        -5.2007
  21   0.0000      -0.024976        -0.6796
  22   0.0000       0.006345         0.1727
  23   0.0000       0.010099         0.2748
  24   0.0000       0.016876         0.4592

MULLIKEN ATOMIC CHARGES
-----------------------
   0 C :   -0.385968
   1 C :   -0.123399
   2 C :   -0.232893
   3 C :   -0.181413
   4 C :   -0.345690
   5 H :    0.122780
   6 H :    0.119863
   7 H :    0.128447
   8 H :    0.108168
   9 H :    0.109558
  10 H :    0.142571
  11 H :    0.141262
  12 H :    0.134146
  13 H :    0.134369
  14 H :    0.128200
Sum of atomic charges:    0.0000000

LOEWDIN ATOMIC CHARGES
----------------------
   0 C :   -0.307329
   1 C :   -0.277729
   2 C :   -0.200153
   3 C :   -0.219273
   4 C :   -0.296674
   5 H :    0.119112
   6 H :    0.117964
   7 H :    0.118097
   8 H :    0.136433
   9 H :    0.140980
  10 H :    0.145327
  11 H :    0.142992
  12 H :    0.128406
  13 H :    0.128745
  14 H :    0.123103

  Mayer bond orders larger than 0.100000
B(  0-C ,  1-C ) :   0.9636 B(  0-C ,  5-H ) :   0.9805 B(  0-C ,  6-H ) :   0.9764
B(  0-C ,  7-H ) :   0.9770 B(  1-C ,  2-C ) :   0.9563 B(  1-C ,  8-H ) :   0.9831
B(  1-C ,  9-H ) :   0.9656 B(  2-C ,  3-C ) :   1.9468 B(  2-C , 10-H ) :   0.9592
B(  3-C ,  4-C ) :   0.9566 B(  3-C , 11-H ) :   0.9650 B(  4-C , 12-H ) :   0.9666
B(  4-C , 13-H ) :   0.9659 B(  4-C , 14-H ) :   0.9866

FINAL SINGLE POINT ENERGY      -196.535252968062

DIPOLE MOMENT
-------------

Method             : SCF
Type of density    : Electron Density
Multiplicity       :   1
Irrep              :   0
Energy             :  -196.5448683697623835 Eh
Relativity type    :
Basis              : AO
                                X                 Y                 Z
Electronic contribution:      1.163023509      -1.651778424       0.431459557
Nuclear contribution   :     -1.163673189       1.803828705      -0.390906983
                        -----------------------------------------
Total Dipole Moment    :     -0.000649680       0.152050281       0.040552574
                        -----------------------------------------
Magnitude (a.u.)       :      0.157366519
Magnitude (Debye)      :      0.399993903

Rotational constants in cm-1:             0.371037             0.086107             0.078801
Rotational constants in MHz :         11123.398428          2581.432314          2362.407922

                             ****ORCA TERMINATED NORMALLY****
TOTAL RUN TIME: 0 days 0 hours 1 minutes 4 seconds 482 msec
