                         Program Version 6.0.0  -   RELEASE  -
|  1> ! pbe def2-sv(p) def2/J RI DEFGRID1 loosescf d4 GCP(DFT/SV(P)) printgap
|  2> %output
|  3>     printlevel normal
|  4> end
|  5> * xyz 0 1
|  6> C -2.0419888183 0.033336155 1.71162e-05
|  7> C -0.703747366 0.7055507651 -7.418e-07
|  8> C 0.4542165689 0.0546339729 5.258e-07
|  9> C 1.7738446679 0.764822257 9.854e-06
| 10> C 0.5137803019 -1.4464904195 -1.0537e-06
| 11> H -2.1514577808 -0.6068825764 0.8756316199
| 12> H -2.843471598 0.7661651853 0.0051917111
| 13> H -2.155497566 -0.598686492 -0.8810732562
| 14> H -0.7074320777 1.7870299109 -0.0002077745
| 15> H 2.3509993204 0.4838564734 -0.8804109902
| 16> H 1.6397533622 1.8434839853 0.0003463025
| 17> H 2.3512678463 0.4833517869 0.8800975182
| 18> H 0.0104052945 -1.8485153563 0.8785319643
| 19> H 0.0090437819 -1.8486830324 -0.8776990241
| 20> H 1.5427984533 -1.7939696646 -0.0007143212
| 21> *
| 22>
| 23>                          ****END OF INPUT****

CARTESIAN COORDINATES (ANGSTROEM)
---------------------------------
  C     -2.041989    0.033336    0.000017
  C     -0.703747    0.705551   -0.000001
  C      0.454217    0.054634    0.000001
  C      1.773845    0.764822    0.000010
  C      0.513780   -1.446490   -0.000001
  H     -2.151458   -0.606883    0.875632
  H     -2.843472    0.766165    0.005192
  H     -2.155498   -0.598686   -0.881073
  H     -0.707432    1.787030   -0.000208
  H      2.350999    0.483856   -0.880411
  H      1.639753    1.843484    0.000346
  H      2.351268    0.483352    0.880098
  H      0.010405   -1.848515    0.878532
  H      0.009044   -1.848683   -0.877699
  H      1.542798   -1.793970   -0.000714

 Total Charge           Charge          ....    0
 Multiplicity           Mult            ....    1
 Number of Electrons    NEL             ....   40
 Basis Dimension        Dim             ....   90

ORBITAL ENERGIES
----------------

  NO   OCC          E(Eh)            E(eV)
   0   2.0000      -9.886766      -269.0326
   1   2.0000      -9.875930      -268.7377
   2   2.0000      -9.873927      -268.6832
   3   2.0000      -9.873793      -268.6796
   4   2.0000      -9.870696      -268.5953
   5   2.0000      -0.728728       -19.8297
   6   2.0000      -0.653681       -17.7876
   7   2.0000      -0.616804       -16.7841
   8   2.0000      -0.561109       -15.2686
   9   2.0000      -0.451268       -12.2796
  10   2.0000      -0.409397       -11.1403
  11   2.0000      -0.387601       -10.5472
  12   2.0000      -0.383561       -10.4372
  13   2.0000      -0.355444        -9.6721
  14   2.0000      -0.341504        -9.2928
  15   2.0000      -0.340908        -9.2766
  16   2.0000      -0.319408        -8.6915
  17   2.0000      -0.305360        -8.3093
  18   2.0000      -0.283793        -7.7224
  19   2.0000      -0.196327        -5.3423
  20   0.0000      -0.001180        -0.0321
  21   0.0000       0.040962         1.1146
  22   0.0000       0.065984         1.7955
  23   0.0000       0.073556         2.0016
  24   0.0000       0.091551         2.4912

MULLIKEN ATOMIC CHARGES
-----------------------
   0 C :   -0.217533
   1 C :   -0.206375
   2 C :   -0.118449
   3 C :   -0.220690
   4 C :   -0.223961
   5 H :    0.108814
   6 H :    0.101380
   7 H :    0.108962
   8 H :    0.047652
   9 H :    0.105004
  10 H :    0.095487
  11 H :    0.105000
  12 H :    0.109582
  13 H :    0.109511
  14 H :    0.095617
Sum of atomic charges:    0.0000000

LOEWDIN ATOMIC CHARGES
----------------------
   0 C :   -0.338972
   1 C :   -0.172581
   2 C :   -0.079913
   3 C :   -0.322263
   4 C :   -0.327797
   5 H :    0.126242
   6 H :    0.123532
   7 H :    0.126332
   8 H :    0.113893
   9 H :    0.124641
  10 H :    0.120833
  11 H :    0.124639
  12 H :    0.130138
  13 H :    0.130112
  14 H :    0.121164

  Mayer bond orders larger than 0.100000
B(  0-C ,  1-C ) :   1.1226 B(  0-C ,  5-H ) :   0.9340 B(  0-C ,  6-H ) :   0.9474
B(  0-C ,  7-H ) :   0.9340 B(  1-C ,  2-C ) :   1.9574 B(  1-C ,  8-H ) :   0.9236
B(  2-C ,  3-C ) :   1.1348 B(  2-C ,  4-C ) :   1.1290 B(  3-C ,  9-H ) :   0.9315
B(  3-C , 10-H ) :   0.9453 B(  3-C , 11-H ) :   0.9315 B(  4-C , 12-H ) :   0.9287
B(  4-C , 13-H ) :   0.9287 B(  4-C , 14-H ) :   0.9444

Dispersion correction           -0.010247146
FINAL SINGLE POINT ENERGY      -196.033795399439

DIPOLE MOMENT
-------------

Method             : SCF
Type of density    : Electron Density
Multiplicity       :   1
Irrep              :   0
Energy             :  -196.0810728819176916 Eh
Relativity type    :
Basis              : AO
                                X                 Y                 Z
Electronic contribution:     -0.005546104       1.121873671       0.000053478
Nuclear contribution   :      0.043539633      -1.250441618      -0.000287315
                        -----------------------------------------
Total Dipole Moment    :      0.037993529      -0.128567946      -0.000233837
                        -----------------------------------------
Magnitude (a.u.)       :      0.134064461
Magnitude (Debye)      :      0.340764779

Rotational constants in cm-1:             0.274792             0.121728             0.088497
Rotational constants in MHz :          8238.060068          3649.316056          2653.063971

                             ****ORCA TERMINATED NORMALLY****
TOTAL RUN TIME: 0 days 0 hours 0 minutes 4 seconds 605 msec
