                         Program Version 6.0.0  -   RELEASE  -
|  1> ! pbe def2-sv(p) def2/J RI DEFGRID1 loosescf d4 GCP(DFT/SV(P)) printgap
|  2> %output
|  3>     printlevel normal
|  4> end
|  5> * xyz 0 1
|  6> C -2.1159083389 -1.1745916269 -0.2127488066
|  7> C -1.2657895461 -0.3168249576 0.7449265572
|  8> H -1.8660954962 -0.1351669814 1.642677431
|  9> C -0.8984992149 1.0621116229 0.160918848
| 10> H -1.1621249663 1.1175344304 -0.9070284947
| 11> C 0.6144779101 1.2838791489 0.2527787634
| 12> H 0.9124550269 1.3434308586 1.3105499639
| 13> C 1.3184487922 0.0863551921 -0.3905574224
| 14> H 0.9533163145 -0.0242837837 -1.4230886146
| 15> C 0.974639764 -1.1942706458 0.4064925378
| 16> H 1.8002263274 -1.4159303833 1.0951166737
| 17> O -0.1342017394 -1.0162152754 1.2535430883
| 18> O 0.8646371362 -2.3089897488 -0.4183190884
| 19> O 2.6995537523 0.3541566835 -0.3933723388
| 20> O 0.912208305 2.4855794202 -0.4124754529
| 21> O -1.6185432039 2.0392079951 0.8674312209
| 22> O -1.5249761711 -1.3765027511 -1.4817153
| 23> H -3.099348262 -0.710814268 -0.3066499362
| 24> H -2.2274856898 -2.1636052827 0.238983373
| 25> H 0.0778897584 -2.2126363329 -0.9930838453
| 26> H 3.1721966119 -0.3657606496 -0.8338948099
| 27> H 1.8749386486 2.5527922559 -0.4992772122
| 28> H -1.2941791664 2.912846984 0.5997058588
| 29> H -1.8121567199 -0.6928238356 -2.1009432707
| 30> *
| 31>
| 32>                          ****END OF INPUT****

CARTESIAN COORDINATES (ANGSTROEM)
---------------------------------
  C     -2.115908   -1.174592   -0.212749
  C     -1.265790   -0.316825    0.744927
  H     -1.866095   -0.135167    1.642677
  C     -0.898499    1.062112    0.160919
  H     -1.162125    1.117534   -0.907028
  C      0.614478    1.283879    0.252779
  H      0.912455    1.343431    1.310550
  C      1.318449    0.086355   -0.390557
  H      0.953316   -0.024284   -1.423089
  C      0.974640   -1.194271    0.406493
  H      1.800226   -1.415930    1.095117
  O     -0.134202   -1.016215    1.253543
  O      0.864637   -2.308990   -0.418319
  O      2.699554    0.354157   -0.393372
  O      0.912208    2.485579   -0.412475
  O     -1.618543    2.039208    0.867431
  O     -1.524976   -1.376503   -1.481715
  H     -3.099348   -0.710814   -0.306650
  H     -2.227486   -2.163605    0.238983
  H      0.077890   -2.212636   -0.993084
  H      3.172197   -0.365761   -0.833895
  H      1.874939    2.552792   -0.499277
  H     -1.294179    2.912847    0.599706
  H     -1.812157   -0.692824   -2.100943

 Total Charge           Charge          ....    0
 Multiplicity           Mult            ....    1
 Number of Electrons    NEL             ....   96
 Basis Dimension        Dim             ....  192

ORBITAL ENERGIES
----------------

  NO   OCC          E(Eh)            E(eV)
   0   2.0000     -18.789083      -511.2769
   1   2.0000     -18.762916      -510.5649
   2   2.0000     -18.761505      -510.5265
   3   2.0000     -18.753810      -510.3171
   4   2.0000     -18.751710      -510.2600
   5   2.0000     -18.737331      -509.8687
   6   2.0000      -9.974831      -271.4290
   7   2.0000      -9.949230      -270.7323
   8   2.0000      -9.948181      -270.7038
   9   2.0000      -9.947396      -270.6824
  10   2.0000      -9.940476      -270.4941
  11   2.0000      -9.939962      -270.4801
  12   2.0000      -0.973927       -26.5019
  13   2.0000      -0.954383       -25.9701
  14   2.0000      -0.944652       -25.7053
  15   2.0000      -0.934504       -25.4291
  16   2.0000      -0.916153       -24.9298
  17   2.0000      -0.897137       -24.4123
  18   2.0000      -0.707631       -19.2556
  19   2.0000      -0.692931       -18.8556
  20   2.0000      -0.627670       -17.0798
  21   2.0000      -0.584244       -15.8981
  22   2.0000      -0.573031       -15.5930
  23   2.0000      -0.520885       -14.1740
  24   2.0000      -0.504844       -13.7375
  25   2.0000      -0.493903       -13.4398
  26   2.0000      -0.479483       -13.0474
  27   2.0000      -0.462289       -12.5795
  28   2.0000      -0.445546       -12.1239
  29   2.0000      -0.433152       -11.7867
  30   2.0000      -0.417482       -11.3603
  31   2.0000      -0.413210       -11.2440
  32   2.0000      -0.392722       -10.6865
  33   2.0000      -0.381315       -10.3761
  34   2.0000      -0.358874        -9.7655
  35   2.0000      -0.352244        -9.5851
  36   2.0000      -0.320293        -8.7156
  37   2.0000      -0.313345        -8.5265
  38   2.0000      -0.310653        -8.4533
  39   2.0000      -0.302283        -8.2255
  40   2.0000      -0.283792        -7.7224
  41   2.0000      -0.271165        -7.3788
  42   2.0000      -0.268404        -7.3036
  43   2.0000      -0.252809        -6.8793
  44   2.0000      -0.226904        -6.1744
  45   2.0000      -0.222428        -6.0526
  46   2.0000      -0.212230        -5.7751
  47   2.0000      -0.206621        -5.6224
  48   0.0000      -0.003981        -0.1083
  49   0.0000       0.018287         0.4976
  50   0.0000       0.042888         1.1670
  51   0.0000       0.049166         1.3379
  52   0.0000       0.066433         1.8077

MULLIKEN ATOMIC CHARGES
-----------------------
   0 C :   -0.021053
   1 C :    0.092060
   2 H :    0.088151
   3 C :    0.050271
   4 H :    0.023111
   5 C :    0.061430
   6 H :    0.066870
   7 C :   -0.006550
   8 H :    0.037861
   9 C :    0.211224
  10 H :    0.062882
  11 O :   -0.304619
  12 O :   -0.420433
  13 O :   -0.424132
  14 O :   -0.431971
  15 O :   -0.417740
  16 O :   -0.442658
  17 H :    0.102738
  18 H :    0.110221
  19 H :    0.306872
  20 H :    0.312180
  21 H :    0.311384
  22 H :    0.308611
  23 H :    0.323289
Sum of atomic charges:    0.0000000

LOEWDIN ATOMIC CHARGES
----------------------
   0 C :   -0.138104
   1 C :   -0.063079
   2 H :    0.132873
   3 C :   -0.063249
   4 H :    0.085941
   5 C :   -0.077378
   6 H :    0.111034
   7 C :   -0.096876
   8 H :    0.096311
   9 C :   -0.010879
  10 H :    0.109984
  11 O :   -0.141715
  12 O :   -0.325713
  13 O :   -0.322231
  14 O :   -0.327411
  15 O :   -0.319018
  16 O :   -0.325845
  17 H :    0.116735
  18 H :    0.123054
  19 H :    0.269808
  20 H :    0.293938
  21 H :    0.289127
  22 H :    0.288307
  23 H :    0.294384

  Mayer bond orders larger than 0.100000
B(  0-C ,  1-C ) :   1.0254 B(  0-C , 16-O ) :   1.0274 B(  0-C , 17-H ) :   0.9229
B(  0-C , 18-H ) :   0.9194 B(  1-C ,  2-H ) :   0.8761 B(  1-C ,  3-C ) :   0.9705
B(  1-C , 11-O ) :   1.0457 B(  3-C ,  4-H ) :   0.8791 B(  3-C ,  5-C ) :   1.0364
B(  3-C , 15-O ) :   1.0838 B(  5-C ,  6-H ) :   0.8684 B(  5-C ,  7-C ) :   1.0070
B(  5-C , 14-O ) :   1.0763 B(  7-C ,  8-H ) :   0.8772 B(  7-C ,  9-C ) :   0.9794
B(  7-C , 13-O ) :   1.0650 B(  9-C , 10-H ) :   0.8893 B(  9-C , 11-O ) :   1.0448
B(  9-C , 12-O ) :   1.1291 B( 12-O , 19-H ) :   0.7950 B( 13-O , 20-H ) :   0.8418
B( 14-O , 21-H ) :   0.8319 B( 15-O , 22-H ) :   0.8373 B( 16-O , 19-H ) :   0.1025
B( 16-O , 23-H ) :   0.8310

Dispersion correction           -0.025165341
FINAL SINGLE POINT ENERGY      -685.699159277427

DIPOLE MOMENT
-------------

Method             : SCF
Type of density    : Electron Density
Multiplicity       :   1
Irrep              :   0
Energy             :  -685.8313207508480218 Eh
Relativity type    :
Basis              : AO
                                X                 Y                 Z
Electronic contribution:      2.212913513       0.249378072       1.085522588
Nuclear contribution   :     -2.487501293       0.195497504      -2.050998493
                        -----------------------------------------
Total Dipole Moment    :     -0.274587780       0.444875576      -0.965475905
                        -----------------------------------------
Magnitude (a.u.)       :      1.097932807
Magnitude (Debye)      :      2.790723414

Rotational constants in cm-1:             0.035933             0.032354             0.021300
Rotational constants in MHz :          1077.256791           969.954846           638.549529

                             ****ORCA TERMINATED NORMALLY****
TOTAL RUN TIME: 0 days 0 hours 0 minutes 12 seconds 340 msec
