                         Program Version 6.0.0  -   RELEASE  -
|  1> ! pbe def2-sv(p) def2/J RI DEFGRID1 loosescf d4 GCP(DFT/SV(P)) printgap
|  2> %output
|  3>     printlevel normal
|  4> end
|  5> * xyz 0 1
|  6> C -2.5316046613 0.076016238 -4.62309e-05
|  7> C -1.1231324607 -0.5107189524 8.1937e-05
|  8> C -0.0874295139 0.5997227202 4.62208e-05
|  9> Cl 1.5787129634 -0.079264818 -2.02042e-05
| 10> H -2.6890654778 0.6905857441 -0.8822994926
| 11> H -3.2663905262 -0.7234958108 -0.0002279501
| 12> H -2.6892139333 0.6908213253 0.8821580788
| 13> H -0.9827118699 -1.1368768745 0.8824821356
| 14> H -0.9827071774 -1.1367287232 -0.8824021042
| 15> H -0.1634697697 1.2187045506 0.8924688453
| 16> H -0.1634303397 1.218624332 -0.8924451073
| 17> *
| 18>
| 19>                          ****END OF INPUT****

CARTESIAN COORDINATES (ANGSTROEM)
---------------------------------
  C     -2.531605    0.076016   -0.000046
  C     -1.123132   -0.510719    0.000082
  C     -0.087430    0.599723    0.000046
  Cl     1.578713   -0.079265   -0.000020
  H     -2.689065    0.690586   -0.882299
  H     -3.266391   -0.723496   -0.000228
  H     -2.689214    0.690821    0.882158
  H     -0.982712   -1.136877    0.882482
  H     -0.982707   -1.136729   -0.882402
  H     -0.163470    1.218705    0.892469
  H     -0.163430    1.218624   -0.892445

 Total Charge           Charge          ....    0
 Multiplicity           Mult            ....    1
 Number of Electrons    NEL             ....   42
 Basis Dimension        Dim             ....   74

ORBITAL ENERGIES
----------------

  NO   OCC          E(Eh)            E(eV)
   0   2.0000    -100.613318     -2737.8276
   1   2.0000      -9.939233      -270.4603
   2   2.0000      -9.897331      -269.3201
   3   2.0000      -9.886125      -269.0151
   4   2.0000      -9.149138      -248.9607
   5   2.0000      -6.980739      -189.9556
   6   2.0000      -6.968821      -189.6313
   7   2.0000      -6.968694      -189.6278
   8   2.0000      -0.773156       -21.0386
   9   2.0000      -0.698608       -19.0101
  10   2.0000      -0.598250       -16.2792
  11   2.0000      -0.533784       -14.5250
  12   2.0000      -0.438620       -11.9354
  13   2.0000      -0.399898       -10.8818
  14   2.0000      -0.381005       -10.3677
  15   2.0000      -0.369310       -10.0494
  16   2.0000      -0.323964        -8.8155
  17   2.0000      -0.317702        -8.6451
  18   2.0000      -0.306278        -8.3343
  19   2.0000      -0.241891        -6.5822
  20   2.0000      -0.241806        -6.5799
  21   0.0000       0.007322         0.1993
  22   0.0000       0.046588         1.2677
  23   0.0000       0.071328         1.9409
  24   0.0000       0.076134         2.0717
  25   0.0000       0.090787         2.4704

MULLIKEN ATOMIC CHARGES
-----------------------
   0 C :   -0.290523
   1 C :   -0.169953
   2 C :   -0.180210
   3 Cl:   -0.155411
   4 H :    0.104747
   5 H :    0.114830
   6 H :    0.104771
   7 H :    0.102454
   8 H :    0.102430
   9 H :    0.133433
  10 H :    0.133432
Sum of atomic charges:   -0.0000000

LOEWDIN ATOMIC CHARGES
----------------------
   0 C :   -0.340519
   1 C :   -0.256277
   2 C :   -0.272711
   3 Cl:    0.015164
   4 H :    0.119492
   5 H :    0.125875
   6 H :    0.119489
   7 H :    0.121400
   8 H :    0.121401
   9 H :    0.123342
  10 H :    0.123344

  Mayer bond orders larger than 0.100000
B(  0-C ,  1-C ) :   1.1342 B(  0-C ,  4-H ) :   0.9552 B(  0-C ,  5-H ) :   0.9509
B(  0-C ,  6-H ) :   0.9552 B(  1-C ,  2-C ) :   1.1058 B(  1-C ,  7-H ) :   0.9252
B(  1-C ,  8-H ) :   0.9252 B(  2-C ,  3-Cl) :   1.0367 B(  2-C ,  9-H ) :   0.9300
B(  2-C , 10-H ) :   0.9300

Dispersion correction           -0.006864005
FINAL SINGLE POINT ENERGY      -578.086840034020

DIPOLE MOMENT
-------------

Method             : SCF
Type of density    : Electron Density
Multiplicity       :   1
Irrep              :   0
Energy             :  -578.1240089368582176 Eh
Relativity type    :
Basis              : AO
                                X                 Y                 Z
Electronic contribution:     11.641803745      -0.672970053       0.000156434
Nuclear contribution   :    -12.379683229       0.877222172      -0.000222057
                        -----------------------------------------
Total Dipole Moment    :     -0.737879484       0.204252119      -0.000065622
                        -----------------------------------------
Magnitude (a.u.)       :      0.765627237
Magnitude (Debye)      :      1.946069779

Rotational constants in cm-1:             0.861031             0.079270             0.075680
Rotational constants in MHz :         25813.050977          2376.455358          2268.817832

                             ****ORCA TERMINATED NORMALLY****
TOTAL RUN TIME: 0 days 0 hours 0 minutes 4 seconds 534 msec
