                         Program Version 6.0.0  -   RELEASE  -
|  1> ! r2scan-3c def2/J RI DEFGRID2 scfconv6 printgap
|  2> %output
|  3>     printlevel normal
|  4> end
|  5> * xyz 0 1
|  6> C 2.182791302 1.0306134224 -0.4240445754
|  7> C 1.1669806591 -0.0865565494 -0.2401651438
|  8> C 1.6183007821 -1.1201230351 0.7852189941
|  9> O -0.0589206891 0.5329312973 0.2131618917
| 10> C -1.2168702499 -0.032213427 -0.0902131618
| 11> O -1.3201619185 -1.0477182864 -0.7501142605
| 12> C -2.3720410611 0.7337060767 0.4841417499
| 13> H 2.3582026197 1.5259795279 0.5265592041
| 14> H 3.1157096637 0.6159966183 -0.7912514791
| 15> H 1.8127568318 1.7617499072 -1.137338731
| 16> H 0.9505714887 -0.5826666294 -1.1952872618
| 17> H 1.7651496754 -0.6436409612 1.7510256714
| 18> H 2.5502734684 -1.5718341619 0.4614081115
| 19> H 0.8659815416 -1.8998199294 0.8841815686
| 20> H -3.1743094238 0.780167461 -0.2461033335
| 21> H -2.0487555039 1.7264957377 0.7772286537
| 22> H -2.7392986752 0.1978665167 1.3567162567
| 23> *
| 24>
| 25>                          ****END OF INPUT****

CARTESIAN COORDINATES (ANGSTROEM)
---------------------------------
  C      2.182791    1.030613   -0.424045
  C      1.166981   -0.086557   -0.240165
  C      1.618301   -1.120123    0.785219
  O     -0.058921    0.532931    0.213162
  C     -1.216870   -0.032213   -0.090213
  O     -1.320162   -1.047718   -0.750114
  C     -2.372041    0.733706    0.484142
  H      2.358203    1.525980    0.526559
  H      3.115710    0.615997   -0.791251
  H      1.812757    1.761750   -1.137339
  H      0.950571   -0.582667   -1.195287
  H      1.765150   -0.643641    1.751026
  H      2.550273   -1.571834    0.461408
  H      0.865982   -1.899820    0.884182
  H     -3.174309    0.780167   -0.246103
  H     -2.048756    1.726496    0.777229
  H     -2.739299    0.197867    1.356716

 Total Charge           Charge          ....    0
 Multiplicity           Mult            ....    1
 Number of Electrons    NEL             ....   56
 Basis Dimension        Dim             ....  193

ORBITAL ENERGIES
----------------

  NO   OCC          E(Eh)            E(eV)
   0   2.0000     -18.994695      -516.8719
   1   2.0000     -18.925006      -514.9756
   2   2.0000     -10.153861      -276.3006
   3   2.0000     -10.096721      -274.7457
   4   2.0000     -10.037550      -273.1356
   5   2.0000     -10.029003      -272.9031
   6   2.0000     -10.026165      -272.8258
   7   2.0000      -1.070343       -29.1255
   8   2.0000      -0.972963       -26.4757
   9   2.0000      -0.772527       -21.0215
  10   2.0000      -0.711064       -19.3490
  11   2.0000      -0.666736       -18.1428
  12   2.0000      -0.599538       -16.3143
  13   2.0000      -0.521822       -14.1995
  14   2.0000      -0.459840       -12.5129
  15   2.0000      -0.447460       -12.1760
  16   2.0000      -0.438035       -11.9195
  17   2.0000      -0.413438       -11.2502
  18   2.0000      -0.393761       -10.7148
  19   2.0000      -0.387772       -10.5518
  20   2.0000      -0.368025       -10.0145
  21   2.0000      -0.367841       -10.0095
  22   2.0000      -0.351941        -9.5768
  23   2.0000      -0.334194        -9.0939
  24   2.0000      -0.323707        -8.8085
  25   2.0000      -0.301657        -8.2085
  26   2.0000      -0.269093        -7.3224
  27   2.0000      -0.233859        -6.3636
  28   0.0000      -0.011977        -0.3259
  29   0.0000       0.076184         2.0731
  30   0.0000       0.096475         2.6252
  31   0.0000       0.116586         3.1725
  32   0.0000       0.130665         3.5556

MULLIKEN ATOMIC CHARGES
-----------------------
   0 C :   -0.449471
   1 C :   -0.001039
   2 C :   -0.484240
   3 O :   -0.157226
   4 C :    0.426249
   5 O :   -0.430784
   6 C :   -0.524237
   7 H :    0.153048
   8 H :    0.147827
   9 H :    0.153765
  10 H :    0.177283
  11 H :    0.154553
  12 H :    0.148014
  13 H :    0.169399
  14 H :    0.173230
  15 H :    0.170040
  16 H :    0.173589
Sum of atomic charges:    0.0000000

LOEWDIN ATOMIC CHARGES
----------------------
   0 C :   -0.376208
   1 C :    0.071284
   2 C :   -0.378858
   3 O :   -0.595201
   4 C :    0.356689
   5 O :   -0.440388
   6 C :   -0.336209
   7 H :    0.161649
   8 H :    0.160714
   9 H :    0.162380
  10 H :    0.193406
  11 H :    0.160040
  12 H :    0.160440
  13 H :    0.168202
  14 H :    0.177547
  15 H :    0.173835
  16 H :    0.180678

  Mayer bond orders larger than 0.100000
B(  0-C ,  1-C ) :   0.9334 B(  0-C ,  7-H ) :   0.9754 B(  0-C ,  8-H ) :   0.9727
B(  0-C ,  9-H ) :   0.9716 B(  1-C ,  2-C ) :   0.9424 B(  1-C ,  3-O ) :   0.7196
B(  1-C , 10-H ) :   0.9481 B(  2-C , 11-H ) :   0.9777 B(  2-C , 12-H ) :   0.9698
B(  2-C , 13-H ) :   0.9638 B(  3-O ,  4-C ) :   1.0783 B(  4-C ,  5-O ) :   1.8264
B(  4-C ,  6-C ) :   0.9436 B(  6-C , 14-H ) :   0.9681 B(  6-C , 15-H ) :   0.9839
B(  6-C , 16-H ) :   0.9407

Dispersion correction           -0.004086519
FINAL SINGLE POINT ENERGY      -346.942866652429

DIPOLE MOMENT
-------------

Method             : SCF
Type of density    : Electron Density
Multiplicity       :   1
Irrep              :   0
Energy             :  -346.9491250780127416 Eh
Relativity type    :
Basis              : AO
                                X                 Y                 Z
Electronic contribution:     -4.641652342      -1.199002593      -1.822907463
Nuclear contribution   :      5.098458025       1.784542945       2.231574257
                        -----------------------------------------
Total Dipole Moment    :      0.456805683       0.585540351       0.408666794
                        -----------------------------------------
Magnitude (a.u.)       :      0.847665904
Magnitude (Debye)      :      2.154595498

Rotational constants in cm-1:             0.158914             0.055537             0.049109
Rotational constants in MHz :          4764.133456          1664.966771          1472.249722

                             ****ORCA TERMINATED NORMALLY****
TOTAL RUN TIME: 0 days 0 hours 0 minutes 20 seconds 455 msec
