                         Program Version 6.0.0  -   RELEASE  -
|  1> ! r2scan-3c def2/J RI DEFGRID2 scfconv6 printgap
|  2> %output
|  3>     printlevel normal
|  4> end
|  5> %cpcm
|  6>     smd true
|  7>     smdsolvent "water"
|  8> end
|  9> * xyz 0 1
| 10> C 2.182791302 1.0306134224 -0.4240445754
| 11> C 1.1669806591 -0.0865565494 -0.2401651438
| 12> C 1.6183007821 -1.1201230351 0.7852189941
| 13> O -0.0589206891 0.5329312973 0.2131618917
| 14> C -1.2168702499 -0.032213427 -0.0902131618
| 15> O -1.3201619185 -1.0477182864 -0.7501142605
| 16> C -2.3720410611 0.7337060767 0.4841417499
| 17> H 2.3582026197 1.5259795279 0.5265592041
| 18> H 3.1157096637 0.6159966183 -0.7912514791
| 19> H 1.8127568318 1.7617499072 -1.137338731
| 20> H 0.9505714887 -0.5826666294 -1.1952872618
| 21> H 1.7651496754 -0.6436409612 1.7510256714
| 22> H 2.5502734684 -1.5718341619 0.4614081115
| 23> H 0.8659815416 -1.8998199294 0.8841815686
| 24> H -3.1743094238 0.780167461 -0.2461033335
| 25> H -2.0487555039 1.7264957377 0.7772286537
| 26> H -2.7392986752 0.1978665167 1.3567162567
| 27> *
| 28>
| 29>                          ****END OF INPUT****

CARTESIAN COORDINATES (ANGSTROEM)
---------------------------------
  C      2.182791    1.030613   -0.424045
  C      1.166981   -0.086557   -0.240165
  C      1.618301   -1.120123    0.785219
  O     -0.058921    0.532931    0.213162
  C     -1.216870   -0.032213   -0.090213
  O     -1.320162   -1.047718   -0.750114
  C     -2.372041    0.733706    0.484142
  H      2.358203    1.525980    0.526559
  H      3.115710    0.615997   -0.791251
  H      1.812757    1.761750   -1.137339
  H      0.950571   -0.582667   -1.195287
  H      1.765150   -0.643641    1.751026
  H      2.550273   -1.571834    0.461408
  H      0.865982   -1.899820    0.884182
  H     -3.174309    0.780167   -0.246103
  H     -2.048756    1.726496    0.777229
  H     -2.739299    0.197867    1.356716

 Total Charge           Charge          ....    0
 Multiplicity           Mult            ....    1
 Number of Electrons    NEL             ....   56
 Basis Dimension        Dim             ....  193

ORBITAL ENERGIES
----------------

  NO   OCC          E(Eh)            E(eV)
   0   2.0000     -19.000843      -517.0392
   1   2.0000     -18.941543      -515.4256
   2   2.0000     -10.164883      -276.6005
   3   2.0000     -10.090992      -274.5898
   4   2.0000     -10.029614      -272.9197
   5   2.0000     -10.016495      -272.5627
   6   2.0000     -10.016381      -272.5596
   7   2.0000      -1.078155       -29.3381
   8   2.0000      -0.987433       -26.8694
   9   2.0000      -0.767240       -20.8777
  10   2.0000      -0.705533       -19.1985
  11   2.0000      -0.656871       -17.8744
  12   2.0000      -0.595763       -16.2115
  13   2.0000      -0.519694       -14.1416
  14   2.0000      -0.465487       -12.6666
  15   2.0000      -0.449520       -12.2321
  16   2.0000      -0.443718       -12.0742
  17   2.0000      -0.408948       -11.1280
  18   2.0000      -0.387700       -10.5498
  19   2.0000      -0.379447       -10.3253
  20   2.0000      -0.365244        -9.9388
  21   2.0000      -0.356436        -9.6991
  22   2.0000      -0.346199        -9.4206
  23   2.0000      -0.330996        -9.0069
  24   2.0000      -0.322148        -8.7661
  25   2.0000      -0.298987        -8.1359
  26   2.0000      -0.276239        -7.5168
  27   2.0000      -0.251171        -6.8347
  28   0.0000      -0.020199        -0.5496
  29   0.0000       0.080171         2.1816
  30   0.0000       0.103699         2.8218
  31   0.0000       0.127263         3.4630
  32   0.0000       0.139599         3.7987

MULLIKEN ATOMIC CHARGES
-----------------------
   0 C :   -0.498760
   1 C :    0.016696
   2 C :   -0.510767
   3 O :   -0.177853
   4 C :    0.474208
   5 O :   -0.518337
   6 C :   -0.560855
   7 H :    0.167958
   8 H :    0.170946
   9 H :    0.165999
  10 H :    0.178529
  11 H :    0.171118
  12 H :    0.172878
  13 H :    0.165992
  14 H :    0.190877
  15 H :    0.187451
  16 H :    0.203920
Sum of atomic charges:    0.0000000

LOEWDIN ATOMIC CHARGES
----------------------
   0 C :   -0.380030
   1 C :    0.074930
   2 C :   -0.382574
   3 O :   -0.597085
   4 C :    0.367641
   5 O :   -0.502945
   6 C :   -0.334202
   7 H :    0.165599
   8 H :    0.169571
   9 H :    0.165350
  10 H :    0.194202
  11 H :    0.165566
  12 H :    0.169178
  13 H :    0.165625
  14 H :    0.184557
  15 H :    0.182185
  16 H :    0.192431

  Mayer bond orders larger than 0.100000
B(  0-C ,  1-C ) :   0.9286 B(  0-C ,  7-H ) :   0.9732 B(  0-C ,  8-H ) :   0.9660
B(  0-C ,  9-H ) :   0.9690 B(  1-C ,  2-C ) :   0.9397 B(  1-C ,  3-O ) :   0.7076
B(  1-C , 10-H ) :   0.9445 B(  2-C , 11-H ) :   0.9737 B(  2-C , 12-H ) :   0.9651
B(  2-C , 13-H ) :   0.9604 B(  3-O ,  4-C ) :   1.1052 B(  4-C ,  5-O ) :   1.7522
B(  4-C ,  6-C ) :   0.9439 B(  6-C , 14-H ) :   0.9595 B(  6-C , 15-H ) :   0.9735
B(  6-C , 16-H ) :   0.9285

Dispersion correction           -0.004086519
FINAL SINGLE POINT ENERGY      -346.948284657167

DIPOLE MOMENT
-------------

Method             : SCF
Type of density    : Electron Density
Multiplicity       :   1
Irrep              :   0
Energy             :  -346.9545430827512291 Eh
Relativity type    :
Basis              : AO
                                X                 Y                 Z
Electronic contribution:     -4.477423924      -0.953249830      -1.653507377
Nuclear contribution   :      5.098458025       1.784542945       2.231574257
                        -----------------------------------------
Total Dipole Moment    :      0.621034101       0.831293115       0.578066879
                        -----------------------------------------
Magnitude (a.u.)       :      1.187810134
Magnitude (Debye)      :      3.019173424

Rotational constants in cm-1:             0.158914             0.055537             0.049109
Rotational constants in MHz :          4764.133456          1664.966771          1472.249722

                             ****ORCA TERMINATED NORMALLY****
TOTAL RUN TIME: 0 days 0 hours 0 minutes 25 seconds 575 msec
