                         Program Version 6.0.0  -   RELEASE  -
|  1> ! r2scan-3c def2/J RI DEFGRID2 scfconv6 printgap
|  2> %output
|  3>     printlevel normal
|  4> end
|  5> * xyz 0 1
|  6> C 0.7366628834 -1.1515e-06 0.0122350529
|  7> N -0.7172776033 -3.8676e-06 -0.0714104493
|  8> H 1.1151303269 0.8832981283 -0.5002101817
|  9> H 1.1151086192 -0.8833605941 -0.5001348534
| 10> H 1.1291022359 7.07836e-05 1.0388769298
| 11> H -1.0849811687 -0.817042858 0.4040496882
| 12> H -1.0849734666 0.8171020074 0.4039691495
| 13> *
| 14>
| 15>                          ****END OF INPUT****

CARTESIAN COORDINATES (ANGSTROEM)
---------------------------------
  C      0.736663   -0.000001    0.012235
  N     -0.717278   -0.000004   -0.071410
  H      1.115130    0.883298   -0.500210
  H      1.115109   -0.883361   -0.500135
  H      1.129102    0.000071    1.038877
  H     -1.084981   -0.817043    0.404050
  H     -1.084973    0.817102    0.403969

 Total Charge           Charge          ....    0
 Multiplicity           Mult            ....    1
 Number of Electrons    NEL             ....   18
 Basis Dimension        Dim             ....   68

ORBITAL ENERGIES
----------------

  NO   OCC          E(Eh)            E(eV)
   0   2.0000     -14.135255      -384.6398
   1   2.0000     -10.042814      -273.2789
   2   2.0000      -0.840263       -22.8647
   3   2.0000      -0.622565       -16.9409
   4   2.0000      -0.457179       -12.4405
   5   2.0000      -0.405524       -11.0349
   6   2.0000      -0.368376       -10.0240
   7   2.0000      -0.334652        -9.1063
   8   2.0000      -0.204208        -5.5568
   9   0.0000       0.072452         1.9715
  10   0.0000       0.127416         3.4672
  11   0.0000       0.147786         4.0215
  12   0.0000       0.186691         5.0801
  13   0.0000       0.195842         5.3291

MULLIKEN ATOMIC CHARGES
-----------------------
   0 C :   -0.318053
   1 N :   -0.565572
   2 H :    0.140932
   3 H :    0.140933
   4 H :    0.119152
   5 H :    0.241304
   6 H :    0.241306
Sum of atomic charges:   -0.0000000

LOEWDIN ATOMIC CHARGES
----------------------
   0 C :   -0.170476
   1 N :   -0.759845
   2 H :    0.164859
   3 H :    0.164862
   4 H :    0.138211
   5 H :    0.231191
   6 H :    0.231196

  Mayer bond orders larger than 0.100000
B(  0-C ,  1-N ) :   0.9142 B(  0-C ,  2-H ) :   0.9806 B(  0-C ,  3-H ) :   0.9806
B(  0-C ,  4-H ) :   0.9607 B(  1-N ,  5-H ) :   0.9229 B(  1-N ,  6-H ) :   0.9229

Dispersion correction           -0.000706419
FINAL SINGLE POINT ENERGY       -95.822529008798

DIPOLE MOMENT
-------------

Method             : SCF
Type of density    : Electron Density
Multiplicity       :   1
Irrep              :   0
Energy             :   -95.8288182658052392 Eh
Relativity type    :
Basis              : AO
                                X                 Y                 Z
Electronic contribution:     -1.004110545      -0.000031102      -0.294272455
Nuclear contribution   :      1.111896724       0.000063274       0.793815831
                        -----------------------------------------
Total Dipole Moment    :      0.107786179       0.000032172       0.499543376
                        -----------------------------------------
Magnitude (a.u.)       :      0.511039574
Magnitude (Debye)      :      1.298959367

Rotational constants in cm-1:             3.430915             0.770314             0.739094
Rotational constants in MHz :        102856.247255         23093.428110         22157.490888

                             ****ORCA TERMINATED NORMALLY****
TOTAL RUN TIME: 0 days 0 hours 0 minutes 6 seconds 52 msec
