                         Program Version 6.0.0  -   RELEASE  -
|  1> ! r2scan-3c def2/J RI DEFGRID2 scfconv6 printgap
|  2> %output
|  3>     printlevel normal
|  4> end
|  5> %cpcm
|  6>     smd true
|  7>     smdsolvent "water"
|  8> end
|  9> * xyz 0 1
| 10> C 0.7366628834 -1.1515e-06 0.0122350529
| 11> N -0.7172776033 -3.8676e-06 -0.0714104493
| 12> H 1.1151303269 0.8832981283 -0.5002101817
| 13> H 1.1151086192 -0.8833605941 -0.5001348534
| 14> H 1.1291022359 7.07836e-05 1.0388769298
| 15> H -1.0849811687 -0.817042858 0.4040496882
| 16> H -1.0849734666 0.8171020074 0.4039691495
| 17> *
| 18>
| 19>                          ****END OF INPUT****

CARTESIAN COORDINATES (ANGSTROEM)
---------------------------------
  C      0.736663   -0.000001    0.012235
  N     -0.717278   -0.000004   -0.071410
  H      1.115130    0.883298   -0.500210
  H      1.115109   -0.883361   -0.500135
  H      1.129102    0.000071    1.038877
  H     -1.084981   -0.817043    0.404050
  H     -1.084973    0.817102    0.403969

 Total Charge           Charge          ....    0
 Multiplicity           Mult            ....    1
 Number of Electrons    NEL             ....   18
 Basis Dimension        Dim             ....   68

ORBITAL ENERGIES
----------------

  NO   OCC          E(Eh)            E(eV)
   0   2.0000     -14.129179      -384.4745
   1   2.0000     -10.035447      -273.0784
   2   2.0000      -0.834194       -22.6996
   3   2.0000      -0.615661       -16.7530
   4   2.0000      -0.449479       -12.2310
   5   2.0000      -0.399464       -10.8700
   6   2.0000      -0.362304        -9.8588
   7   2.0000      -0.326558        -8.8861
   8   2.0000      -0.205032        -5.5792
   9   0.0000       0.083079         2.2607
  10   0.0000       0.134466         3.6590
  11   0.0000       0.163607         4.4520
  12   0.0000       0.191596         5.2136
  13   0.0000       0.204431         5.5628

MULLIKEN ATOMIC CHARGES
-----------------------
   0 C :   -0.347544
   1 N :   -0.652892
   2 H :    0.151232
   3 H :    0.151233
   4 H :    0.132047
   5 H :    0.282960
   6 H :    0.282963
Sum of atomic charges:   -0.0000000

LOEWDIN ATOMIC CHARGES
----------------------
   0 C :   -0.176721
   1 N :   -0.783609
   2 H :    0.167225
   3 H :    0.167228
   4 H :    0.144293
   5 H :    0.240788
   6 H :    0.240794

  Mayer bond orders larger than 0.100000
B(  0-C ,  1-N ) :   0.9225 B(  0-C ,  2-H ) :   0.9753 B(  0-C ,  3-H ) :   0.9753
B(  0-C ,  4-H ) :   0.9642 B(  1-N ,  5-H ) :   0.9057 B(  1-N ,  6-H ) :   0.9057

Dispersion correction           -0.000706419
FINAL SINGLE POINT ENERGY       -95.828344615834

DIPOLE MOMENT
-------------

Method             : SCF
Type of density    : Electron Density
Multiplicity       :   1
Irrep              :   0
Energy             :   -95.8346338728403566 Eh
Relativity type    :
Basis              : AO
                                X                 Y                 Z
Electronic contribution:     -0.967477289      -0.000018673      -0.123826556
Nuclear contribution   :      1.111896724       0.000063274       0.793815831
                        -----------------------------------------
Total Dipole Moment    :      0.144419435       0.000044601       0.669989276
                        -----------------------------------------
Magnitude (a.u.)       :      0.685377710
Magnitude (Debye)      :      1.742091691

Rotational constants in cm-1:             3.430915             0.770314             0.739094
Rotational constants in MHz :        102856.247255         23093.428110         22157.490888

                             ****ORCA TERMINATED NORMALLY****
TOTAL RUN TIME: 0 days 0 hours 0 minutes 6 seconds 843 msec
