                         Program Version 6.0.0  -   RELEASE  -
|  1> ! r2scan-3c def2/J RI DEFGRID2 scfconv6 printgap
|  2> %output
|  3>     printlevel normal
|  4> end
|  5> * xyz 0 1
|  6> C -2.7394532625 0.2190721641 0.6703374501
|  7> C -1.9331242947 -0.2293333086 -0.5509721234
|  8> C -0.4639146442 -0.1155500579 -0.2901459126
|  9> C 0.1829615035 1.1218899751 -0.2365258375
| 10> N 1.475174138 1.2337744827 0.0203630846
| 11> C 2.1481645678 0.1074844859 0.2271307803
| 12> C 1.5191344523 -1.1267916565 0.1683538123
| 13> N 0.2229543681 -1.2364208587 -0.0878199688
| 14> H -2.5017175398 -0.4040153889 1.5289283622
| 15> H -3.8022364983 0.1335999482 0.4629866974
| 16> H -2.5149751078 1.2529985413 0.9213811274
| 17> H -2.1950602682 0.3955525195 -1.4065318736
| 18> H -2.1636367482 -1.2685427067 -0.7830466768
| 19> H -0.3494324037 2.0467609262 -0.4098499345
| 20> H 3.2023230974 0.2097085694 0.437925276
| 21> H 2.0538197349 -2.0524952122 0.3264821533
| 22> *
| 23>
| 24>                          ****END OF INPUT****

CARTESIAN COORDINATES (ANGSTROEM)
---------------------------------
  C     -2.739453    0.219072    0.670337
  C     -1.933124   -0.229333   -0.550972
  C     -0.463915   -0.115550   -0.290146
  C      0.182962    1.121890   -0.236526
  N      1.475174    1.233774    0.020363
  C      2.148165    0.107484    0.227131
  C      1.519134   -1.126792    0.168354
  N      0.222954   -1.236421   -0.087820
  H     -2.501718   -0.404015    1.528928
  H     -3.802236    0.133600    0.462987
  H     -2.514975    1.252999    0.921381
  H     -2.195060    0.395553   -1.406532
  H     -2.163637   -1.268543   -0.783047
  H     -0.349432    2.046761   -0.409850
  H      3.202323    0.209709    0.437925
  H      2.053820   -2.052495    0.326482

 Total Charge           Charge          ....    0
 Multiplicity           Mult            ....    1
 Number of Electrons    NEL             ....   58
 Basis Dimension        Dim             ....  202

ORBITAL ENERGIES
----------------

  NO   OCC          E(Eh)            E(eV)
   0   2.0000     -14.173751      -385.6874
   1   2.0000     -14.171213      -385.6183
   2   2.0000     -10.083894      -274.3967
   3   2.0000     -10.076779      -274.2031
   4   2.0000     -10.075340      -274.1639
   5   2.0000     -10.074386      -274.1380
   6   2.0000     -10.041187      -273.2346
   7   2.0000     -10.031038      -272.9584
   8   2.0000      -0.954387       -25.9702
   9   2.0000      -0.879956       -23.9448
  10   2.0000      -0.778273       -21.1779
  11   2.0000      -0.719675       -19.5834
  12   2.0000      -0.637154       -17.3378
  13   2.0000      -0.629331       -17.1250
  14   2.0000      -0.576447       -15.6859
  15   2.0000      -0.495891       -13.4939
  16   2.0000      -0.487918       -13.2769
  17   2.0000      -0.450194       -12.2504
  18   2.0000      -0.420006       -11.4290
  19   2.0000      -0.412770       -11.2320
  20   2.0000      -0.401449       -10.9240
  21   2.0000      -0.375886       -10.2284
  22   2.0000      -0.353321        -9.6143
  23   2.0000      -0.332973        -9.0607
  24   2.0000      -0.324874        -8.8403
  25   2.0000      -0.308883        -8.4051
  26   2.0000      -0.274620        -7.4728
  27   2.0000      -0.250577        -6.8186
  28   2.0000      -0.215400        -5.8613
  29   0.0000      -0.076801        -2.0899
  30   0.0000      -0.050877        -1.3844
  31   0.0000       0.076257         2.0751
  32   0.0000       0.087019         2.3679
  33   0.0000       0.101021         2.7489

MULLIKEN ATOMIC CHARGES
-----------------------
   0 C :   -0.467209
   1 C :   -0.375954
   2 C :    0.334376
   3 C :   -0.221483
   4 N :   -0.148136
   5 C :   -0.070724
   6 C :   -0.060575
   7 N :   -0.183757
   8 H :    0.156191
   9 H :    0.152942
  10 H :    0.149623
  11 H :    0.149796
  12 H :    0.171474
  13 H :    0.139837
  14 H :    0.135970
  15 H :    0.137629
Sum of atomic charges:    0.0000000

LOEWDIN ATOMIC CHARGES
----------------------
   0 C :   -0.400228
   1 C :   -0.260845
   2 C :    0.147745
   3 C :    0.102202
   4 N :   -0.569146
   5 C :    0.086072
   6 C :    0.099379
   7 N :   -0.572037
   8 H :    0.157280
   9 H :    0.152660
  10 H :    0.152812
  11 H :    0.165542
  12 H :    0.176921
  13 H :    0.188345
  14 H :    0.186705
  15 H :    0.186593

  Mayer bond orders larger than 0.100000
B(  0-C ,  1-C ) :   0.8995 B(  0-C ,  8-H ) :   0.9757 B(  0-C ,  9-H ) :   0.9712
B(  0-C , 10-H ) :   0.9764 B(  1-C ,  2-C ) :   0.8417 B(  1-C , 11-H ) :   0.9833
B(  1-C , 12-H ) :   0.9947 B(  2-C ,  3-C ) :   1.2851 B(  2-C ,  7-N ) :   1.2909
B(  3-C ,  4-N ) :   1.4913 B(  3-C ,  6-C ) :   0.1139 B(  3-C , 13-H ) :   0.9685
B(  4-N ,  5-C ) :   1.4212 B(  5-C ,  6-C ) :   1.3112 B(  5-C , 14-H ) :   0.9708
B(  6-C ,  7-N ) :   1.4417 B(  6-C , 15-H ) :   0.9666

Dispersion correction           -0.004867803
FINAL SINGLE POINT ENERGY      -342.851441866503

DIPOLE MOMENT
-------------

Method             : SCF
Type of density    : Electron Density
Multiplicity       :   1
Irrep              :   0
Energy             :  -342.8563694695808977 Eh
Relativity type    :
Basis              : AO
                                X                 Y                 Z
Electronic contribution:      7.446021021      -0.343847860      -1.017236489
Nuclear contribution   :     -7.750204436       0.294165966       1.011238005
                        -----------------------------------------
Total Dipole Moment    :     -0.304183416      -0.049681894      -0.005998484
                        -----------------------------------------
Magnitude (a.u.)       :      0.308272319
Magnitude (Debye)      :      0.783565964

Rotational constants in cm-1:             0.160582             0.052323             0.043165
Rotational constants in MHz :          4814.134542          1568.590328          1294.040556

                             ****ORCA TERMINATED NORMALLY****
TOTAL RUN TIME: 0 days 0 hours 0 minutes 21 seconds 704 msec
