                         Program Version 6.0.0  -   RELEASE  -
|  1> ! r2scan-3c def2/J RI DEFGRID2 scfconv6 printgap
|  2> %output
|  3>     printlevel normal
|  4> end
|  5> %cpcm
|  6>     smd true
|  7>     smdsolvent "water"
|  8> end
|  9> * xyz 0 1
| 10> C -2.7394532625 0.2190721641 0.6703374501
| 11> C -1.9331242947 -0.2293333086 -0.5509721234
| 12> C -0.4639146442 -0.1155500579 -0.2901459126
| 13> C 0.1829615035 1.1218899751 -0.2365258375
| 14> N 1.475174138 1.2337744827 0.0203630846
| 15> C 2.1481645678 0.1074844859 0.2271307803
| 16> C 1.5191344523 -1.1267916565 0.1683538123
| 17> N 0.2229543681 -1.2364208587 -0.0878199688
| 18> H -2.5017175398 -0.4040153889 1.5289283622
| 19> H -3.8022364983 0.1335999482 0.4629866974
| 20> H -2.5149751078 1.2529985413 0.9213811274
| 21> H -2.1950602682 0.3955525195 -1.4065318736
| 22> H -2.1636367482 -1.2685427067 -0.7830466768
| 23> H -0.3494324037 2.0467609262 -0.4098499345
| 24> H 3.2023230974 0.2097085694 0.437925276
| 25> H 2.0538197349 -2.0524952122 0.3264821533
| 26> *
| 27>
| 28>                          ****END OF INPUT****

CARTESIAN COORDINATES (ANGSTROEM)
---------------------------------
  C     -2.739453    0.219072    0.670337
  C     -1.933124   -0.229333   -0.550972
  C     -0.463915   -0.115550   -0.290146
  C      0.182962    1.121890   -0.236526
  N      1.475174    1.233774    0.020363
  C      2.148165    0.107484    0.227131
  C      1.519134   -1.126792    0.168354
  N      0.222954   -1.236421   -0.087820
  H     -2.501718   -0.404015    1.528928
  H     -3.802236    0.133600    0.462987
  H     -2.514975    1.252999    0.921381
  H     -2.195060    0.395553   -1.406532
  H     -2.163637   -1.268543   -0.783047
  H     -0.349432    2.046761   -0.409850
  H      3.202323    0.209709    0.437925
  H      2.053820   -2.052495    0.326482

 Total Charge           Charge          ....    0
 Multiplicity           Mult            ....    1
 Number of Electrons    NEL             ....   58
 Basis Dimension        Dim             ....  202

ORBITAL ENERGIES
----------------

  NO   OCC          E(Eh)            E(eV)
   0   2.0000     -14.174645      -385.7117
   1   2.0000     -14.171333      -385.6216
   2   2.0000     -10.080479      -274.3038
   3   2.0000     -10.072094      -274.0756
   4   2.0000     -10.070631      -274.0358
   5   2.0000     -10.069688      -274.0101
   6   2.0000     -10.030185      -272.9352
   7   2.0000     -10.017357      -272.5861
   8   2.0000      -0.953420       -25.9439
   9   2.0000      -0.879880       -23.9428
  10   2.0000      -0.771075       -20.9820
  11   2.0000      -0.711593       -19.3634
  12   2.0000      -0.631359       -17.1801
  13   2.0000      -0.624177       -16.9847
  14   2.0000      -0.568585       -15.4720
  15   2.0000      -0.492630       -13.4051
  16   2.0000      -0.482899       -13.1403
  17   2.0000      -0.440852       -11.9962
  18   2.0000      -0.413958       -11.2644
  19   2.0000      -0.401498       -10.9253
  20   2.0000      -0.395437       -10.7604
  21   2.0000      -0.367703       -10.0057
  22   2.0000      -0.344167        -9.3653
  23   2.0000      -0.321984        -8.7616
  24   2.0000      -0.313248        -8.5239
  25   2.0000      -0.309207        -8.4139
  26   2.0000      -0.280020        -7.6197
  27   2.0000      -0.245988        -6.6937
  28   2.0000      -0.217664        -5.9229
  29   0.0000      -0.076464        -2.0807
  30   0.0000      -0.047216        -1.2848
  31   0.0000       0.079738         2.1698
  32   0.0000       0.091453         2.4886
  33   0.0000       0.113043         3.0761

MULLIKEN ATOMIC CHARGES
-----------------------
   0 C :   -0.505958
   1 C :   -0.374122
   2 C :    0.323274
   3 C :   -0.210700
   4 N :   -0.201715
   5 C :   -0.085271
   6 C :   -0.068845
   7 N :   -0.226194
   8 H :    0.161567
   9 H :    0.167068
  10 H :    0.167237
  11 H :    0.171113
  12 H :    0.173361
  13 H :    0.171628
  14 H :    0.167851
  15 H :    0.169707
Sum of atomic charges:    0.0000000

LOEWDIN ATOMIC CHARGES
----------------------
   0 C :   -0.404866
   1 C :   -0.259715
   2 C :    0.150693
   3 C :    0.108343
   4 N :   -0.605041
   5 C :    0.087129
   6 C :    0.102120
   7 N :   -0.601526
   8 H :    0.157379
   9 H :    0.157394
  10 H :    0.158299
  11 H :    0.174962
  12 H :    0.176143
  13 H :    0.201432
  14 H :    0.198470
  15 H :    0.198785

  Mayer bond orders larger than 0.100000
B(  0-C ,  1-C ) :   0.8861 B(  0-C ,  8-H ) :   0.9732 B(  0-C ,  9-H ) :   0.9674
B(  0-C , 10-H ) :   0.9743 B(  1-C ,  2-C ) :   0.8475 B(  1-C , 11-H ) :   0.9714
B(  1-C , 12-H ) :   0.9996 B(  2-C ,  3-C ) :   1.3060 B(  2-C ,  7-N ) :   1.2889
B(  3-C ,  4-N ) :   1.4887 B(  3-C ,  6-C ) :   0.1135 B(  3-C , 13-H ) :   0.9527
B(  4-N ,  5-C ) :   1.4162 B(  5-C ,  6-C ) :   1.3265 B(  5-C , 14-H ) :   0.9602
B(  6-C ,  7-N ) :   1.4324 B(  6-C , 15-H ) :   0.9561

Dispersion correction           -0.004867803
FINAL SINGLE POINT ENERGY      -342.861034885987

DIPOLE MOMENT
-------------

Method             : SCF
Type of density    : Electron Density
Multiplicity       :   1
Irrep              :   0
Energy             :  -342.8659624890647706 Eh
Relativity type    :
Basis              : AO
                                X                 Y                 Z
Electronic contribution:      7.363384315      -0.296522595      -1.040006467
Nuclear contribution   :     -7.750204436       0.294165966       1.011238005
                        -----------------------------------------
Total Dipole Moment    :     -0.386820122      -0.002356629      -0.028768462
                        -----------------------------------------
Magnitude (a.u.)       :      0.387895585
Magnitude (Debye)      :      0.985952222

Rotational constants in cm-1:             0.160582             0.052323             0.043165
Rotational constants in MHz :          4814.134542          1568.590328          1294.040556

                             ****ORCA TERMINATED NORMALLY****
TOTAL RUN TIME: 0 days 0 hours 0 minutes 30 seconds 275 msec
