                         Program Version 6.0.0  -   RELEASE  -
|  1> ! wb97x-v def2-tzvp def2/J RIJCOSX DEFGRID2 scfconv7 GCP(DFT/TZ) printgap
|  2> %output
|  3>     printlevel normal
|  4> end
|  5> * xyz 0 1
|  6> C -1.6381773979061098 -0.5027157499607106 -1.856693780507455e-05
|  7> C -0.6150595093267752 0.641803745160021 -0.00010550976562897158
|  8> C 0.7577801032079751 0.16149950543814967 -0.0003968503411245959
|  9> C 1.886054959947019 -0.26846583749093733 0.0013045228670915223
| 10> H -1.5182951230267412 -1.1305451492785943 0.8871484494053595
| 11> H -1.518431569779885 -1.1305433297068777 -0.8872060834517711
| 12> H -2.651955140021113 -0.09280793728060457 6.670476999383214e-05
| 13> H -0.7680331728600369 1.2797709180366308 0.878499121204306
| 14> H -0.7682330777246207 1.279821969855294 -0.8786402060892786
| 15> H 2.88637804793597 -0.6403415800037234 -0.0007125211584000236
| 16> *
| 17>
| 18>                          ****END OF INPUT****

CARTESIAN COORDINATES (ANGSTROEM)
---------------------------------
  C     -1.638177   -0.502716   -0.000019
  C     -0.615060    0.641804   -0.000106
  C      0.757780    0.161500   -0.000397
  C      1.886055   -0.268466    0.001305
  H     -1.518295   -1.130545    0.887148
  H     -1.518432   -1.130543   -0.887206
  H     -2.651955   -0.092808    0.000067
  H     -0.768033    1.279771    0.878499
  H     -0.768233    1.279822   -0.878640
  H      2.886378   -0.640342   -0.000713

 Total Charge           Charge          ....    0
 Multiplicity           Mult            ....    1
 Number of Electrons    NEL             ....   30
 Basis Dimension        Dim             ....  160

ORBITAL ENERGIES
----------------

  NO   OCC          E(Eh)            E(eV)
   0   2.0000     -12.073157      -328.5273
   1   2.0000     -12.049868      -327.8936
   2   2.0000     -12.046963      -327.8145
   3   2.0000     -12.036064      -327.5180
   4   2.0000      -1.320534       -35.9336
   5   2.0000      -1.261359       -34.3233
   6   2.0000      -1.139261       -31.0009
   7   2.0000      -0.982757       -26.7422
   8   2.0000      -0.934940       -25.4410
   9   2.0000      -0.887035       -24.1374
  10   2.0000      -0.851423       -23.1684
  11   2.0000      -0.808081       -21.9890
  12   2.0000      -0.793104       -21.5814
  13   2.0000      -0.676340       -18.4041
  14   2.0000      -0.672410       -18.2972
  15   0.0000      -0.158941        -4.3250
  16   0.0000      -0.147772        -4.0211
  17   0.0000      -0.050260        -1.3676
  18   0.0000      -0.000975        -0.0265
  19   0.0000       0.009887         0.2690

MULLIKEN ATOMIC CHARGES
-----------------------
   0 C :   -0.315484
   1 C :   -0.225490
   2 C :   -0.074541
   3 C :   -0.155386
   4 H :    0.116394
   5 H :    0.116364
   6 H :    0.113910
   7 H :    0.123940
   8 H :    0.124039
   9 H :    0.176253
Sum of atomic charges:    0.0000000

LOEWDIN ATOMIC CHARGES
----------------------
   0 C :   -0.283995
   1 C :   -0.268021
   2 C :   -0.118318
   3 C :   -0.114940
   4 H :    0.121209
   5 H :    0.121204
   6 H :    0.117176
   7 H :    0.151203
   8 H :    0.151183
   9 H :    0.123298

  Mayer bond orders larger than 0.100000
B(  0-C ,  1-C ) :   0.9893 B(  0-C ,  4-H ) :   0.9760 B(  0-C ,  5-H ) :   0.9761
B(  0-C ,  6-H ) :   0.9790 B(  1-C ,  2-C ) :   1.0504 B(  1-C ,  7-H ) :   0.9751
B(  1-C ,  8-H ) :   0.9757 B(  2-C ,  3-C ) :   2.8283 B(  3-C ,  9-H ) :   0.9669

FINAL SINGLE POINT ENERGY      -155.969538870405

DIPOLE MOMENT
-------------

Method             : SCF
Type of density    : Electron Density
Multiplicity       :   1
Irrep              :   0
Energy             :  -155.9750729244054241 Eh
Relativity type    :
Basis              : AO
                                X                 Y                 Z
Electronic contribution:      3.787144854       0.472042572       0.000810775
Nuclear contribution   :     -4.103456990      -0.402330282      -0.001683165
                        -----------------------------------------
Total Dipole Moment    :     -0.316312135       0.069712291      -0.000872390
                        -----------------------------------------
Magnitude (a.u.)       :      0.323904201
Magnitude (Debye)      :      0.823299051

Rotational constants in cm-1:             0.906147             0.152054             0.136849
Rotational constants in MHz :         27165.612852          4558.455069          4102.630439

                             ****ORCA TERMINATED NORMALLY****
TOTAL RUN TIME: 0 days 0 hours 0 minutes 38 seconds 118 msec
