                         Program Version 6.0.0  -   RELEASE  -
|  1> ! wb97x-v def2-tzvp def2/J RIJCOSX DEFGRID2 scfconv7 GCP(DFT/TZ) printgap
|  2> %output
|  3>     printlevel normal
|  4> end
|  5> %cpcm
|  6>     smd true
|  7>     smdsolvent "water"
|  8> end
|  9> * xyz 0 1
| 10> C -1.6381773979061098 -0.5027157499607106 -1.856693780507455e-05
| 11> C -0.6150595093267752 0.641803745160021 -0.00010550976562897158
| 12> C 0.7577801032079751 0.16149950543814967 -0.0003968503411245959
| 13> C 1.886054959947019 -0.26846583749093733 0.0013045228670915223
| 14> H -1.5182951230267412 -1.1305451492785943 0.8871484494053595
| 15> H -1.518431569779885 -1.1305433297068777 -0.8872060834517711
| 16> H -2.651955140021113 -0.09280793728060457 6.670476999383214e-05
| 17> H -0.7680331728600369 1.2797709180366308 0.878499121204306
| 18> H -0.7682330777246207 1.279821969855294 -0.8786402060892786
| 19> H 2.88637804793597 -0.6403415800037234 -0.0007125211584000236
| 20> *
| 21>
| 22>                          ****END OF INPUT****

CARTESIAN COORDINATES (ANGSTROEM)
---------------------------------
  C     -1.638177   -0.502716   -0.000019
  C     -0.615060    0.641804   -0.000106
  C      0.757780    0.161500   -0.000397
  C      1.886055   -0.268466    0.001305
  H     -1.518295   -1.130545    0.887148
  H     -1.518432   -1.130543   -0.887206
  H     -2.651955   -0.092808    0.000067
  H     -0.768033    1.279771    0.878499
  H     -0.768233    1.279822   -0.878640
  H      2.886378   -0.640342   -0.000713

 Total Charge           Charge          ....    0
 Multiplicity           Mult            ....    1
 Number of Electrons    NEL             ....   30
 Basis Dimension        Dim             ....  160

ORBITAL ENERGIES
----------------

  NO   OCC          E(Eh)            E(eV)
   0   2.0000     -12.063535      -328.2655
   1   2.0000     -12.056032      -328.0613
   2   2.0000     -12.039206      -327.6034
   3   2.0000     -12.035855      -327.5123
   4   2.0000      -1.321074       -35.9483
   5   2.0000      -1.260333       -34.2954
   6   2.0000      -1.131605       -30.7925
   7   2.0000      -0.980960       -26.6933
   8   2.0000      -0.929568       -25.2948
   9   2.0000      -0.877312       -23.8729
  10   2.0000      -0.842731       -22.9319
  11   2.0000      -0.797318       -21.6961
  12   2.0000      -0.783277       -21.3141
  13   2.0000      -0.682960       -18.5843
  14   2.0000      -0.678349       -18.4588
  15   0.0000      -0.162535        -4.4228
  16   0.0000      -0.151714        -4.1284
  17   0.0000      -0.046045        -1.2530
  18   0.0000       0.010120         0.2754
  19   0.0000       0.019170         0.5216

MULLIKEN ATOMIC CHARGES
-----------------------
   0 C :   -0.365887
   1 C :   -0.213480
   2 C :   -0.109192
   3 C :   -0.235293
   4 H :    0.129266
   5 H :    0.129267
   6 H :    0.136347
   7 H :    0.148009
   8 H :    0.148070
   9 H :    0.232891
Sum of atomic charges:    0.0000000

LOEWDIN ATOMIC CHARGES
----------------------
   0 C :   -0.287502
   1 C :   -0.263682
   2 C :   -0.133736
   3 C :   -0.141610
   4 H :    0.122693
   5 H :    0.122695
   6 H :    0.123383
   7 H :    0.159567
   8 H :    0.159549
   9 H :    0.138643

  Mayer bond orders larger than 0.100000
B(  0-C ,  1-C ) :   0.9801 B(  0-C ,  4-H ) :   0.9743 B(  0-C ,  5-H ) :   0.9744
B(  0-C ,  6-H ) :   0.9753 B(  1-C ,  2-C ) :   1.0752 B(  1-C ,  7-H ) :   0.9641
B(  1-C ,  8-H ) :   0.9642 B(  2-C ,  3-C ) :   2.7642 B(  3-C ,  9-H ) :   0.9666

FINAL SINGLE POINT ENERGY      -155.970592937296

DIPOLE MOMENT
-------------

Method             : SCF
Type of density    : Electron Density
Multiplicity       :   1
Irrep              :   0
Energy             :  -155.9761269912959278 Eh
Relativity type    :
Basis              : AO
                                X                 Y                 Z
Electronic contribution:      3.662212482       0.534746059       0.000454109
Nuclear contribution   :     -4.103456990      -0.402330282      -0.001683165
                        -----------------------------------------
Total Dipole Moment    :     -0.441244507       0.132415778      -0.001229056
                        -----------------------------------------
Magnitude (a.u.)       :      0.460686622
Magnitude (Debye)      :      1.170972335

Rotational constants in cm-1:             0.906147             0.152054             0.136849
Rotational constants in MHz :         27165.612852          4558.455069          4102.630439

                             ****ORCA TERMINATED NORMALLY****
TOTAL RUN TIME: 0 days 0 hours 0 minutes 39 seconds 880 msec
