                         Program Version 6.0.0  -   RELEASE  -
|  1> ! r2scan-3c def2/J RI DEFGRID2 scfconv6 printgap
|  2> %output
|  3>     printlevel normal
|  4> end
|  5> %cpcm
|  6>     smd true
|  7>     smdsolvent "water"
|  8> end
|  9> * xyz 0 1
| 10> C 2.2069e-06 3.8881e-06 3.5171e-06
| 11> H 0.5954582155 -0.1889201225 0.8831989729
| 12> H 0.6500649109 0.26582556 -0.8228695518
| 13> H -0.5592418233 -0.8902665719 -0.2551652192
| 14> H -0.6863076004 0.8133148027 0.1947938875
| 15> *
| 16>
| 17>                          ****END OF INPUT****

CARTESIAN COORDINATES (ANGSTROEM)
---------------------------------
  C      0.000002    0.000004    0.000004
  H      0.595458   -0.188920    0.883199
  H      0.650065    0.265826   -0.822870
  H     -0.559242   -0.890267   -0.255165
  H     -0.686308    0.813315    0.194794

 Total Charge           Charge          ....    0
 Multiplicity           Mult            ....    1
 Number of Electrons    NEL             ....   10
 Basis Dimension        Dim             ....   39

ORBITAL ENERGIES
----------------

  NO   OCC          E(Eh)            E(eV)
   0   2.0000     -10.001726      -272.1608
   1   2.0000      -0.656705       -17.8699
   2   2.0000      -0.354859        -9.6562
   3   2.0000      -0.354816        -9.6550
   4   2.0000      -0.354799        -9.6546
   5   0.0000       0.121352         3.3022
   6   0.0000       0.188991         5.1427
   7   0.0000       0.189009         5.1432
   8   0.0000       0.189035         5.1439
   9   0.0000       0.234634         6.3847

MULLIKEN ATOMIC CHARGES
-----------------------
   0 C :   -0.625171
   1 H :    0.156242
   2 H :    0.156304
   3 H :    0.156295
   4 H :    0.156331
Sum of atomic charges:    0.0000000

LOEWDIN ATOMIC CHARGES
----------------------
   0 C :   -0.601671
   1 H :    0.150387
   2 H :    0.150420
   3 H :    0.150423
   4 H :    0.150440

  Mayer bond orders larger than 0.100000
B(  0-C ,  1-H ) :   0.9690 B(  0-C ,  2-H ) :   0.9690 B(  0-C ,  3-H ) :   0.9690
B(  0-C ,  4-H ) :   0.9690

Dispersion correction           -0.000297409
FINAL SINGLE POINT ENERGY       -40.490995308878

DIPOLE MOMENT
-------------

Method             : SCF
Type of density    : Electron Density
Multiplicity       :   1
Irrep              :   0
Energy             :   -40.4936758794062257 Eh
Relativity type    :
Basis              : AO
                                X                 Y                 Z
Electronic contribution:     -0.000045631       0.000098280      -0.000048253
Nuclear contribution   :     -0.000024671      -0.000043467      -0.000039319
                        -----------------------------------------
Total Dipole Moment    :     -0.000070302       0.000054813      -0.000087572
                        -----------------------------------------
Magnitude (a.u.)       :      0.000124963
Magnitude (Debye)      :      0.000317631

Rotational constants in cm-1:             5.359148             5.358264             5.357919
Rotational constants in MHz :        160663.205508        160636.703871        160626.364436

                             ****ORCA TERMINATED NORMALLY****
TOTAL RUN TIME: 0 days 0 hours 0 minutes 3 seconds 992 msec
