                         Program Version 6.0.0  -   RELEASE  -
|  1> ! pbe def2-sv(p) def2/J RI DEFGRID1 loosescf d4 GCP(DFT/SV(P)) printgap
|  2> %output
|  3>     printlevel normal
|  4> end
|  5> * xyz 0 1
|  6> C -3.4297163691 0.6270361518 0.2420328635
|  7> O -2.0252057575 0.7385275102 -0.0034843933
|  8> C -1.3299328024 -0.3873581247 -0.1050952845
|  9> O -1.8381522952 -1.4848725703 0.0079229332
| 10> C 0.1367076469 -0.1537595227 -0.3939318538
| 11> C 0.984060388 -1.2450840443 0.2676322434
| 12> C 2.4547541658 -1.0647823493 -0.0928192739
| 13> C 2.93959049 0.3191153124 0.3297180827
| 14> C 2.0949120437 1.4046438917 -0.3308519278
| 15> C 0.6197002063 1.2351106864 0.0248154686
| 16> H -3.6085827874 -0.020636431 1.1010744234
| 17> H -3.9266286223 0.2029964779 -0.6311998128
| 18> H -3.7742433779 1.6383761799 0.4331666871
| 19> H 0.2411028674 -0.2506367287 -1.48241618
| 20> H 0.8606814384 -1.1825535518 1.3512529394
| 21> H 0.6236486349 -2.2248239657 -0.0503137907
| 22> H 3.0482430199 -1.8359176353 0.4004482331
| 23> H 2.5809038363 -1.1815781351 -1.1711090953
| 24> H 2.8647391214 0.4119046898 1.4151340984
| 25> H 3.9875605722 0.4450907253 0.0531255179
| 26> H 2.4360976661 2.3892841282 -0.0081108659
| 27> H 2.2144956966 1.3460886406 -1.4146959879
| 28> H 0.4859558904 1.3508750915 1.1021562591
| 29> H 0.0237011762 2.0010483198 -0.4718374546
| 30> *
| 31>
| 32>                          ****END OF INPUT****

CARTESIAN COORDINATES (ANGSTROEM)
---------------------------------
  C     -3.429716    0.627036    0.242033
  O     -2.025206    0.738528   -0.003484
  C     -1.329933   -0.387358   -0.105095
  O     -1.838152   -1.484873    0.007923
  C      0.136708   -0.153760   -0.393932
  C      0.984060   -1.245084    0.267632
  C      2.454754   -1.064782   -0.092819
  C      2.939590    0.319115    0.329718
  C      2.094912    1.404644   -0.330852
  C      0.619700    1.235111    0.024815
  H     -3.608583   -0.020636    1.101074
  H     -3.926629    0.202996   -0.631200
  H     -3.774243    1.638376    0.433167
  H      0.241103   -0.250637   -1.482416
  H      0.860681   -1.182554    1.351253
  H      0.623649   -2.224824   -0.050314
  H      3.048243   -1.835918    0.400448
  H      2.580904   -1.181578   -1.171109
  H      2.864739    0.411905    1.415134
  H      3.987561    0.445091    0.053126
  H      2.436098    2.389284   -0.008111
  H      2.214496    1.346089   -1.414696
  H      0.485956    1.350875    1.102156
  H      0.023701    2.001048   -0.471837

 Total Charge           Charge          ....    0
 Multiplicity           Mult            ....    1
 Number of Electrons    NEL             ....   78
 Basis Dimension        Dim             ....  168

ORBITAL ENERGIES
----------------

  NO   OCC          E(Eh)            E(eV)
   0   2.0000     -18.798184      -511.5246
   1   2.0000     -18.731481      -509.7095
   2   2.0000     -10.001746      -272.1613
   3   2.0000      -9.941107      -270.5113
   4   2.0000      -9.903471      -269.4871
   5   2.0000      -9.884559      -268.9725
   6   2.0000      -9.883335      -268.9392
   7   2.0000      -9.882999      -268.9301
   8   2.0000      -9.882484      -268.9161
   9   2.0000      -9.881913      -268.9005
  10   2.0000      -1.005287       -27.3552
  11   2.0000      -0.906985       -24.6803
  12   2.0000      -0.761490       -20.7212
  13   2.0000      -0.693423       -18.8690
  14   2.0000      -0.667369       -18.1600
  15   2.0000      -0.650169       -17.6920
  16   2.0000      -0.560271       -15.2457
  17   2.0000      -0.542047       -14.7498
  18   2.0000      -0.506420       -13.7804
  19   2.0000      -0.499986       -13.6053
  20   2.0000      -0.458120       -12.4661
  21   2.0000      -0.436434       -11.8760
  22   2.0000      -0.414167       -11.2700
  23   2.0000      -0.409734       -11.1494
  24   2.0000      -0.397419       -10.8143
  25   2.0000      -0.393084       -10.6964
  26   2.0000      -0.376794       -10.2531
  27   2.0000      -0.353188        -9.6107
  28   2.0000      -0.344134        -9.3644
  29   2.0000      -0.336276        -9.1505
  30   2.0000      -0.331210        -9.0127
  31   2.0000      -0.304866        -8.2958
  32   2.0000      -0.304028        -8.2730
  33   2.0000      -0.298056        -8.1105
  34   2.0000      -0.283763        -7.7216
  35   2.0000      -0.269527        -7.3342
  36   2.0000      -0.259538        -7.0624
  37   2.0000      -0.256740        -6.9862
  38   2.0000      -0.214354        -5.8329
  39   0.0000      -0.018900        -0.5143
  40   0.0000       0.036282         0.9873
  41   0.0000       0.047397         1.2897
  42   0.0000       0.055626         1.5137
  43   0.0000       0.073213         1.9922

MULLIKEN ATOMIC CHARGES
-----------------------
   0 C :   -0.107655
   1 O :   -0.234412
   2 C :    0.181750
   3 O :   -0.206813
   4 C :   -0.232256
   5 C :   -0.138763
   6 C :   -0.124009
   7 C :   -0.164745
   8 C :   -0.129433
   9 C :   -0.113674
  10 H :    0.121627
  11 H :    0.118088
  12 H :    0.120713
  13 H :    0.093542
  14 H :    0.076475
  15 H :    0.101488
  16 H :    0.086961
  17 H :    0.071138
  18 H :    0.074707
  19 H :    0.084578
  20 H :    0.085090
  21 H :    0.070359
  22 H :    0.074195
  23 H :    0.091049
Sum of atomic charges:    0.0000000

LOEWDIN ATOMIC CHARGES
----------------------
   0 C :   -0.202902
   1 O :   -0.065490
   2 C :    0.044329
   3 O :   -0.167513
   4 C :   -0.167070
   5 C :   -0.211778
   6 C :   -0.225613
   7 C :   -0.228040
   8 C :   -0.225965
   9 C :   -0.218761
  10 H :    0.120769
  11 H :    0.119449
  12 H :    0.120037
  13 H :    0.138697
  14 H :    0.117105
  15 H :    0.124539
  16 H :    0.117793
  17 H :    0.114197
  18 H :    0.114191
  19 H :    0.115861
  20 H :    0.116699
  21 H :    0.113853
  22 H :    0.116181
  23 H :    0.119433

  Mayer bond orders larger than 0.100000
B(  0-C ,  1-O ) :   0.9380 B(  0-C , 10-H ) :   0.9482 B(  0-C , 11-H ) :   0.9549
B(  0-C , 12-H ) :   0.9592 B(  1-O ,  2-C ) :   1.2360 B(  2-C ,  3-O ) :   2.0591
B(  2-C ,  4-C ) :   0.9528 B(  4-C ,  5-C ) :   1.1018 B(  4-C ,  9-C ) :   1.0978
B(  4-C , 13-H ) :   0.8534 B(  5-C ,  6-C ) :   1.1371 B(  5-C , 14-H ) :   0.9146
B(  5-C , 15-H ) :   0.9063 B(  6-C ,  7-C ) :   1.1311 B(  6-C , 16-H ) :   0.9201
B(  6-C , 17-H ) :   0.9102 B(  7-C ,  8-C ) :   1.1345 B(  7-C , 18-H ) :   0.9150
B(  7-C , 19-H ) :   0.9198 B(  8-C ,  9-C ) :   1.1325 B(  8-C , 20-H ) :   0.9200
B(  8-C , 21-H ) :   0.9099 B(  9-C , 22-H ) :   0.9141 B(  9-C , 23-H ) :   0.9057

Dispersion correction           -0.022574094
FINAL SINGLE POINT ENERGY      -462.706721253583

DIPOLE MOMENT
-------------

Method             : SCF
Type of density    : Electron Density
Multiplicity       :   1
Irrep              :   0
Energy             :  -462.7949716371111890 Eh
Relativity type    :
Basis              : AO
                                X                 Y                 Z
Electronic contribution:     -7.519081479      -2.187759988      -0.613432598
Nuclear contribution   :      7.502166771       2.887418585       0.587991684
                        -----------------------------------------
Total Dipole Moment    :     -0.016914708       0.699658596      -0.025440914
                        -----------------------------------------
Magnitude (a.u.)       :      0.700325281
Magnitude (Debye)      :      1.780085398

Rotational constants in cm-1:             0.097331             0.026242             0.021676
Rotational constants in MHz :          2917.924685           786.712461           649.832766

                             ****ORCA TERMINATED NORMALLY****
TOTAL RUN TIME: 0 days 0 hours 0 minutes 11 seconds 935 msec
