                         Program Version 6.0.0  -   RELEASE  -
|  1> ! r2scan-3c def2/J RI DEFGRID2 scfconv6 printgap
|  2> %output
|  3>     printlevel normal
|  4> end
|  5> * xyz 0 1
|  6> C 2.4509920634 -1.1995112584 0.0072734917
|  7> C 1.6993724456 0.0970538861 -0.0003816245
|  8> O 2.2708188508 1.1754764723 -0.006629984
|  9> C 0.2163698483 0.0287722226 -0.0002384296
| 10> C -0.513236463 1.2207522188 0.0033595496
| 11> C -1.8942283482 1.1704798529 0.0037380207
| 12> C -2.5024326969 -0.0774744022 0.0006377819
| 13> N -1.826102038 -1.2167358612 -0.0035794614
| 14> C -0.5066065386 -1.1662967242 -0.0040878567
| 15> H 2.1843492704 -1.7765224678 0.8891265262
| 16> H 3.5185133589 -0.9965415955 0.0123593827
| 17> H 2.1943273556 -1.779944846 -0.8753790903
| 18> H 0.023674105 2.1584178994 0.00603016
| 19> H -2.4853327172 2.0715361053 0.0068617947
| 20> H -3.5788459203 -0.1777010057 0.0013094496
| 21> H -0.0168694926 -2.1289299668 -0.0080737249
| 22> *
| 23>
| 24>                          ****END OF INPUT****

CARTESIAN COORDINATES (ANGSTROEM)
---------------------------------
  C      2.450992   -1.199511    0.007273
  C      1.699372    0.097054   -0.000382
  O      2.270819    1.175476   -0.006630
  C      0.216370    0.028772   -0.000238
  C     -0.513236    1.220752    0.003360
  C     -1.894228    1.170480    0.003738
  C     -2.502433   -0.077474    0.000638
  N     -1.826102   -1.216736   -0.003579
  C     -0.506607   -1.166297   -0.004088
  H      2.184349   -1.776522    0.889127
  H      3.518513   -0.996542    0.012359
  H      2.194327   -1.779945   -0.875379
  H      0.023674    2.158418    0.006030
  H     -2.485333    2.071536    0.006862
  H     -3.578846   -0.177701    0.001309
  H     -0.016869   -2.128930   -0.008074

 Total Charge           Charge          ....    0
 Multiplicity           Mult            ....    1
 Number of Electrons    NEL             ....   64
 Basis Dimension        Dim             ....  216

ORBITAL ENERGIES
----------------

  NO   OCC          E(Eh)            E(eV)
   0   2.0000     -18.945479      -515.5327
   1   2.0000     -14.169360      -385.5679
   2   2.0000     -10.131632      -275.6957
   3   2.0000     -10.086824      -274.4764
   4   2.0000     -10.084833      -274.4223
   5   2.0000     -10.066868      -273.9334
   6   2.0000     -10.062999      -273.8281
   7   2.0000     -10.058706      -273.7113
   8   2.0000     -10.042380      -273.2671
   9   2.0000      -1.012118       -27.5411
  10   2.0000      -0.931542       -25.3485
  11   2.0000      -0.794000       -21.6058
  12   2.0000      -0.762961       -20.7612
  13   2.0000      -0.718103       -19.5406
  14   2.0000      -0.632421       -17.2091
  15   2.0000      -0.611313       -16.6347
  16   2.0000      -0.539145       -14.6709
  17   2.0000      -0.501786       -13.6543
  18   2.0000      -0.474278       -12.9057
  19   2.0000      -0.446362       -12.1461
  20   2.0000      -0.431327       -11.7370
  21   2.0000      -0.429439       -11.6856
  22   2.0000      -0.400498       -10.8981
  23   2.0000      -0.390856       -10.6357
  24   2.0000      -0.381532       -10.3820
  25   2.0000      -0.369635       -10.0583
  26   2.0000      -0.350492        -9.5374
  27   2.0000      -0.345235        -9.3943
  28   2.0000      -0.283645        -7.7184
  29   2.0000      -0.264530        -7.1982
  30   2.0000      -0.243065        -6.6141
  31   2.0000      -0.224438        -6.1073
  32   0.0000      -0.100872        -2.7449
  33   0.0000      -0.064761        -1.7622
  34   0.0000      -0.006531        -0.1777
  35   0.0000       0.070075         1.9068
  36   0.0000       0.096392         2.6230

MULLIKEN ATOMIC CHARGES
-----------------------
   0 C :   -0.561848
   1 C :    0.249915
   2 O :   -0.345332
   3 C :    0.202867
   4 C :   -0.171947
   5 C :   -0.112292
   6 C :   -0.062274
   7 N :   -0.167895
   8 C :   -0.176262
   9 H :    0.173220
  10 H :    0.184477
  11 H :    0.173059
  12 H :    0.188223
  13 H :    0.152128
  14 H :    0.137637
  15 H :    0.136322
Sum of atomic charges:   -0.0000000

LOEWDIN ATOMIC CHARGES
----------------------
   0 C :   -0.379588
   1 C :    0.239034
   2 O :   -0.468272
   3 C :   -0.060309
   4 C :   -0.061933
   5 C :   -0.139474
   6 C :    0.099387
   7 N :   -0.607623
   8 C :    0.103799
   9 H :    0.175664
  10 H :    0.178093
  11 H :    0.175880
  12 H :    0.193467
  13 H :    0.172981
  14 H :    0.187162
  15 H :    0.191731

  Mayer bond orders larger than 0.100000
B(  0-C ,  1-C ) :   0.8673 B(  0-C ,  9-H ) :   0.9590 B(  0-C , 10-H ) :   0.9771
B(  0-C , 11-H ) :   0.9575 B(  1-C ,  2-O ) :   1.9140 B(  1-C ,  3-C ) :   0.9046
B(  2-O ,  3-C ) :  -0.1198 B(  2-O ,  4-C ) :   0.1030 B(  3-C ,  4-C ) :   1.3378
B(  3-C ,  8-C ) :   1.2788 B(  4-C ,  5-C ) :   1.3932 B(  4-C , 12-H ) :   0.9612
B(  5-C ,  6-C ) :   1.3196 B(  5-C , 13-H ) :   0.9474 B(  6-C ,  7-N ) :   1.4561
B(  6-C , 14-H ) :   0.9806 B(  7-N ,  8-C ) :   1.4941 B(  8-C , 15-H ) :   0.9739

Dispersion correction           -0.005272665
FINAL SINGLE POINT ENERGY      -400.833111175221

DIPOLE MOMENT
-------------

Method             : SCF
Type of density    : Electron Density
Multiplicity       :   1
Irrep              :   0
Energy             :  -400.8353074197170827 Eh
Relativity type    :
Basis              : AO
                                X                 Y                 Z
Electronic contribution:     -2.099494906       2.235926969      -0.022127646
Nuclear contribution   :      1.749688672      -2.456372009       0.030123542
                        -----------------------------------------
Total Dipole Moment    :     -0.349806234      -0.220445040       0.007995896
                        -----------------------------------------
Magnitude (a.u.)       :      0.413550905
Magnitude (Debye)      :      1.051162864

Rotational constants in cm-1:             0.126197             0.041725             0.031541
Rotational constants in MHz :          3783.286269          1250.872384           945.588072

                             ****ORCA TERMINATED NORMALLY****
TOTAL RUN TIME: 0 days 0 hours 0 minutes 27 seconds 469 msec
