                         Program Version 6.0.0  -   RELEASE  -
|  1> ! r2scan-3c def2/J RI DEFGRID2 scfconv6 printgap
|  2> %output
|  3>     printlevel normal
|  4> end
|  5> %cpcm
|  6>     smd true
|  7>     smdsolvent "water"
|  8> end
|  9> * xyz 0 1
| 10> C 2.4509920634 -1.1995112584 0.0072734917
| 11> C 1.6993724456 0.0970538861 -0.0003816245
| 12> O 2.2708188508 1.1754764723 -0.006629984
| 13> C 0.2163698483 0.0287722226 -0.0002384296
| 14> C -0.513236463 1.2207522188 0.0033595496
| 15> C -1.8942283482 1.1704798529 0.0037380207
| 16> C -2.5024326969 -0.0774744022 0.0006377819
| 17> N -1.826102038 -1.2167358612 -0.0035794614
| 18> C -0.5066065386 -1.1662967242 -0.0040878567
| 19> H 2.1843492704 -1.7765224678 0.8891265262
| 20> H 3.5185133589 -0.9965415955 0.0123593827
| 21> H 2.1943273556 -1.779944846 -0.8753790903
| 22> H 0.023674105 2.1584178994 0.00603016
| 23> H -2.4853327172 2.0715361053 0.0068617947
| 24> H -3.5788459203 -0.1777010057 0.0013094496
| 25> H -0.0168694926 -2.1289299668 -0.0080737249
| 26> *
| 27>
| 28>                          ****END OF INPUT****

CARTESIAN COORDINATES (ANGSTROEM)
---------------------------------
  C      2.450992   -1.199511    0.007273
  C      1.699372    0.097054   -0.000382
  O      2.270819    1.175476   -0.006630
  C      0.216370    0.028772   -0.000238
  C     -0.513236    1.220752    0.003360
  C     -1.894228    1.170480    0.003738
  C     -2.502433   -0.077474    0.000638
  N     -1.826102   -1.216736   -0.003579
  C     -0.506607   -1.166297   -0.004088
  H      2.184349   -1.776522    0.889127
  H      3.518513   -0.996542    0.012359
  H      2.194327   -1.779945   -0.875379
  H      0.023674    2.158418    0.006030
  H     -2.485333    2.071536    0.006862
  H     -3.578846   -0.177701    0.001309
  H     -0.016869   -2.128930   -0.008074

 Total Charge           Charge          ....    0
 Multiplicity           Mult            ....    1
 Number of Electrons    NEL             ....   64
 Basis Dimension        Dim             ....  216

ORBITAL ENERGIES
----------------

  NO   OCC          E(Eh)            E(eV)
   0   2.0000     -18.951227      -515.6891
   1   2.0000     -14.167046      -385.5049
   2   2.0000     -10.134027      -275.7609
   3   2.0000     -10.079258      -274.2706
   4   2.0000     -10.076641      -274.1993
   5   2.0000     -10.059350      -273.7288
   6   2.0000     -10.056950      -273.6635
   7   2.0000     -10.047734      -273.4127
   8   2.0000     -10.026297      -272.8294
   9   2.0000      -1.019462       -27.7410
  10   2.0000      -0.927455       -25.2373
  11   2.0000      -0.788174       -21.4473
  12   2.0000      -0.754099       -20.5201
  13   2.0000      -0.706612       -19.2279
  14   2.0000      -0.625705       -17.0263
  15   2.0000      -0.602074       -16.3833
  16   2.0000      -0.533493       -14.5171
  17   2.0000      -0.493701       -13.4343
  18   2.0000      -0.467159       -12.7120
  19   2.0000      -0.442206       -12.0330
  20   2.0000      -0.422514       -11.4972
  21   2.0000      -0.416118       -11.3231
  22   2.0000      -0.402708       -10.9582
  23   2.0000      -0.384186       -10.4542
  24   2.0000      -0.374635       -10.1943
  25   2.0000      -0.359319        -9.7776
  26   2.0000      -0.342791        -9.3278
  27   2.0000      -0.340425        -9.2634
  28   2.0000      -0.279902        -7.6165
  29   2.0000      -0.258531        -7.0350
  30   2.0000      -0.244687        -6.6583
  31   2.0000      -0.229833        -6.2541
  32   0.0000      -0.097994        -2.6666
  33   0.0000      -0.058478        -1.5913
  34   0.0000      -0.002102        -0.0572
  35   0.0000       0.079264         2.1569
  36   0.0000       0.112435         3.0595

MULLIKEN ATOMIC CHARGES
-----------------------
   0 C :   -0.587132
   1 C :    0.286574
   2 O :   -0.438973
   3 C :    0.195822
   4 C :   -0.171664
   5 C :   -0.154214
   6 C :   -0.068024
   7 N :   -0.226038
   8 C :   -0.162501
   9 H :    0.204152
  10 H :    0.187387
  11 H :    0.204237
  12 H :    0.203530
  13 H :    0.189664
  14 H :    0.168212
  15 H :    0.168968
Sum of atomic charges:   -0.0000000

LOEWDIN ATOMIC CHARGES
----------------------
   0 C :   -0.376260
   1 C :    0.255021
   2 O :   -0.537407
   3 C :   -0.063032
   4 C :   -0.061327
   5 C :   -0.133250
   6 C :    0.102293
   7 N :   -0.646571
   8 C :    0.114400
   9 H :    0.190038
  10 H :    0.178233
  11 H :    0.190331
  12 H :    0.197118
  13 H :    0.186990
  14 H :    0.198285
  15 H :    0.205138

  Mayer bond orders larger than 0.100000
B(  0-C ,  1-C ) :   0.8826 B(  0-C ,  9-H ) :   0.9421 B(  0-C , 10-H ) :   0.9762
B(  0-C , 11-H ) :   0.9405 B(  1-C ,  2-O ) :   1.8543 B(  1-C ,  3-C ) :   0.9198
B(  2-O ,  3-C ) :  -0.1083 B(  3-C ,  4-C ) :   1.2855 B(  3-C ,  8-C ) :   1.3016
B(  4-C ,  5-C ) :   1.3965 B(  4-C , 12-H ) :   0.9586 B(  5-C ,  6-C ) :   1.3320
B(  5-C , 13-H ) :   0.9471 B(  6-C ,  7-N ) :   1.4425 B(  6-C , 14-H ) :   0.9670
B(  7-N ,  8-C ) :   1.5117 B(  8-C , 15-H ) :   0.9528

Dispersion correction           -0.005272665
FINAL SINGLE POINT ENERGY      -400.845176146170

DIPOLE MOMENT
-------------

Method             : SCF
Type of density    : Electron Density
Multiplicity       :   1
Irrep              :   0
Energy             :  -400.8473723906652140 Eh
Relativity type    :
Basis              : AO
                                X                 Y                 Z
Electronic contribution:     -2.317330637       2.034732232      -0.018948399
Nuclear contribution   :      1.749688672      -2.456372009       0.030123542
                        -----------------------------------------
Total Dipole Moment    :     -0.567641964      -0.421639778       0.011175144
                        -----------------------------------------
Magnitude (a.u.)       :      0.707193315
Magnitude (Debye)      :      1.797542555

Rotational constants in cm-1:             0.126197             0.041725             0.031541
Rotational constants in MHz :          3783.286269          1250.872384           945.588072

                             ****ORCA TERMINATED NORMALLY****
TOTAL RUN TIME: 0 days 0 hours 0 minutes 27 seconds 527 msec
