                         Program Version 6.0.0  -   RELEASE  -
|  1> ! r2scan-3c def2/J RI DEFGRID2 scfconv6 printgap
|  2> %output
|  3>     printlevel normal
|  4> end
|  5> * xyz 0 1
|  6> C -3.0585686563 0.7221953568 0.6129221991
|  7> O -1.8553550546 0.7076296717 -0.1603080541
|  8> C -1.0696928458 -0.3628735714 -0.1109722399
|  9> O -1.3191897586 -1.3412858334 0.5620898402
| 10> C 0.126863343 -0.2214726779 -1.0311348582
| 11> C 1.1672439054 -1.3094099089 -0.7547642568
| 12> C 1.859312891 -1.0841505864 0.5874801542
| 13> C 2.4888266316 0.3040929828 0.6477418057
| 14> C 1.4287221114 1.3759537682 0.4141537113
| 15> C 0.7581402417 1.1726349584 -0.9412525788
| 16> H -3.067504606 1.6506322276 1.1797530449
| 17> H -3.0813859393 -0.1398330183 1.2806760487
| 18> H -3.9035662394 0.6892308923 -0.0732108089
| 19> H -0.2772127811 -0.3583553873 -2.0417142267
| 20> H 0.6778991253 -2.2849408366 -0.7541963825
| 21> H 1.9088771653 -1.294301147 -1.5546772188
| 22> H 1.124366153 -1.1899820234 1.3885640089
| 23> H 2.6235921865 -1.8490711037 0.7348245696
| 24> H 2.962529217 0.4533149506 1.6195150057
| 25> H 3.2608687239 0.3857823105 -0.120261605
| 26> H 0.6767903162 1.3194404582 1.2053888939
| 27> H 1.8833798849 2.3671741599 0.4532774939
| 28> H -0.0054597351 1.9332441839 -1.1040407052
| 29> H 1.507065141 1.2623094976 -1.7297435995
| 30> *
| 31>
| 32>                          ****END OF INPUT****

CARTESIAN COORDINATES (ANGSTROEM)
---------------------------------
  C     -3.058569    0.722195    0.612922
  O     -1.855355    0.707630   -0.160308
  C     -1.069693   -0.362874   -0.110972
  O     -1.319190   -1.341286    0.562090
  C      0.126863   -0.221473   -1.031135
  C      1.167244   -1.309410   -0.754764
  C      1.859313   -1.084151    0.587480
  C      2.488827    0.304093    0.647742
  C      1.428722    1.375954    0.414154
  C      0.758140    1.172635   -0.941253
  H     -3.067505    1.650632    1.179753
  H     -3.081386   -0.139833    1.280676
  H     -3.903566    0.689231   -0.073211
  H     -0.277213   -0.358355   -2.041714
  H      0.677899   -2.284941   -0.754196
  H      1.908877   -1.294301   -1.554677
  H      1.124366   -1.189982    1.388564
  H      2.623592   -1.849071    0.734825
  H      2.962529    0.453315    1.619515
  H      3.260869    0.385782   -0.120262
  H      0.676790    1.319440    1.205389
  H      1.883380    2.367174    0.453277
  H     -0.005460    1.933244   -1.104041
  H      1.507065    1.262309   -1.729744

 Total Charge           Charge          ....    0
 Multiplicity           Mult            ....    1
 Number of Electrons    NEL             ....   78
 Basis Dimension        Dim             ....  270

ORBITAL ENERGIES
----------------

  NO   OCC          E(Eh)            E(eV)
   0   2.0000     -18.998916      -516.9868
   1   2.0000     -18.929631      -515.1015
   2   2.0000     -10.152382      -276.2604
   3   2.0000     -10.085346      -274.4362
   4   2.0000     -10.046794      -273.3872
   5   2.0000     -10.028416      -272.8871
   6   2.0000     -10.024007      -272.7671
   7   2.0000     -10.023309      -272.7481
   8   2.0000     -10.020283      -272.6658
   9   2.0000     -10.016918      -272.5742
  10   2.0000      -1.073014       -29.1982
  11   2.0000      -0.977227       -26.5917
  12   2.0000      -0.806961       -21.9585
  13   2.0000      -0.733455       -19.9583
  14   2.0000      -0.709136       -19.2966
  15   2.0000      -0.690321       -18.7846
  16   2.0000      -0.594762       -16.1843
  17   2.0000      -0.574240       -15.6259
  18   2.0000      -0.544151       -14.8071
  19   2.0000      -0.516002       -14.0411
  20   2.0000      -0.466418       -12.6919
  21   2.0000      -0.456394       -12.4191
  22   2.0000      -0.444116       -12.0850
  23   2.0000      -0.436690       -11.8829
  24   2.0000      -0.411319       -11.1926
  25   2.0000      -0.405533       -11.0351
  26   2.0000      -0.394735       -10.7413
  27   2.0000      -0.373370       -10.1599
  28   2.0000      -0.347629        -9.4595
  29   2.0000      -0.345406        -9.3990
  30   2.0000      -0.339749        -9.2450
  31   2.0000      -0.338058        -9.1990
  32   2.0000      -0.314697        -8.5633
  33   2.0000      -0.311467        -8.4755
  34   2.0000      -0.291816        -7.9407
  35   2.0000      -0.273473        -7.4416
  36   2.0000      -0.268349        -7.3022
  37   2.0000      -0.266919        -7.2632
  38   2.0000      -0.235832        -6.4173
  39   0.0000      -0.016551        -0.4504
  40   0.0000       0.063119         1.7176
  41   0.0000       0.085251         2.3198
  42   0.0000       0.102771         2.7965
  43   0.0000       0.113102         3.0777

MULLIKEN ATOMIC CHARGES
-----------------------
   0 C :   -0.310027
   1 O :   -0.172877
   2 C :    0.227065
   3 O :   -0.425246
   4 C :    0.073248
   5 C :   -0.338287
   6 C :   -0.317335
   7 C :   -0.314954
   8 C :   -0.272040
   9 C :   -0.345381
  10 H :    0.148051
  11 H :    0.190064
  12 H :    0.148747
  13 H :    0.163707
  14 H :    0.161285
  15 H :    0.155999
  16 H :    0.177636
  17 H :    0.146697
  18 H :    0.148463
  19 H :    0.142038
  20 H :    0.146714
  21 H :    0.150202
  22 H :    0.164824
  23 H :    0.151407
Sum of atomic charges:    0.0000000

LOEWDIN ATOMIC CHARGES
----------------------
   0 C :   -0.045836
   1 O :   -0.611142
   2 C :    0.363983
   3 O :   -0.447318
   4 C :   -0.152812
   5 C :   -0.278201
   6 C :   -0.295874
   7 C :   -0.302379
   8 C :   -0.294724
   9 C :   -0.274311
  10 H :    0.173475
  11 H :    0.193512
  12 H :    0.172860
  13 H :    0.186625
  14 H :    0.173982
  15 H :    0.158125
  16 H :    0.169468
  17 H :    0.155340
  18 H :    0.154728
  19 H :    0.153570
  20 H :    0.158922
  21 H :    0.156001
  22 H :    0.173269
  23 H :    0.158737

  Mayer bond orders larger than 0.100000
B(  0-C ,  1-O ) :   0.8385 B(  0-C , 10-H ) :   0.9665 B(  0-C , 11-H ) :   0.9695
B(  0-C , 12-H ) :   0.9627 B(  1-O ,  2-C ) :   1.0747 B(  2-C ,  3-O ) :   1.8678
B(  2-C ,  4-C ) :   0.9643 B(  4-C ,  5-C ) :   0.9442 B(  4-C ,  9-C ) :   0.8917
B(  4-C , 13-H ) :   0.8906 B(  5-C ,  6-C ) :   0.9046 B(  5-C , 14-H ) :   0.9385
B(  5-C , 15-H ) :   0.9910 B(  6-C ,  7-C ) :   0.9054 B(  6-C , 16-H ) :   0.9858
B(  6-C , 17-H ) :   0.9388 B(  7-C ,  8-C ) :   0.9178 B(  7-C , 18-H ) :   0.9462
B(  7-C , 19-H ) :   1.0020 B(  8-C ,  9-C ) :   0.9114 B(  8-C , 20-H ) :   0.9817
B(  8-C , 21-H ) :   0.9390 B(  9-C , 22-H ) :   0.9415 B(  9-C , 23-H ) :   0.9840

Dispersion correction           -0.007919648
FINAL SINGLE POINT ENERGY      -463.634511698261

DIPOLE MOMENT
-------------

Method             : SCF
Type of density    : Electron Density
Multiplicity       :   1
Irrep              :   0
Energy             :  -463.6399912445174323 Eh
Relativity type    :
Basis              : AO
                                X                 Y                 Z
Electronic contribution:     -5.942831787      -2.066572373      -0.726443952
Nuclear contribution   :      5.854228444       2.753174593       0.460174818
                        -----------------------------------------
Total Dipole Moment    :     -0.088603343       0.686602220      -0.266269134
                        -----------------------------------------
Magnitude (a.u.)       :      0.741736080
Magnitude (Debye)      :      1.885343286

Rotational constants in cm-1:             0.076761             0.032418             0.028337
Rotational constants in MHz :          2301.235832           971.880341           849.521211

                             ****ORCA TERMINATED NORMALLY****
TOTAL RUN TIME: 0 days 0 hours 0 minutes 33 seconds 563 msec
