                         Program Version 6.0.0  -   RELEASE  -
|  1> ! r2scan-3c def2/J RI DEFGRID2 scfconv6 printgap
|  2> %output
|  3>     printlevel normal
|  4> end
|  5> %cpcm
|  6>     smd true
|  7>     smdsolvent "water"
|  8> end
|  9> * xyz 0 1
| 10> C -3.0585686563 0.7221953568 0.6129221991
| 11> O -1.8553550546 0.7076296717 -0.1603080541
| 12> C -1.0696928458 -0.3628735714 -0.1109722399
| 13> O -1.3191897586 -1.3412858334 0.5620898402
| 14> C 0.126863343 -0.2214726779 -1.0311348582
| 15> C 1.1672439054 -1.3094099089 -0.7547642568
| 16> C 1.859312891 -1.0841505864 0.5874801542
| 17> C 2.4888266316 0.3040929828 0.6477418057
| 18> C 1.4287221114 1.3759537682 0.4141537113
| 19> C 0.7581402417 1.1726349584 -0.9412525788
| 20> H -3.067504606 1.6506322276 1.1797530449
| 21> H -3.0813859393 -0.1398330183 1.2806760487
| 22> H -3.9035662394 0.6892308923 -0.0732108089
| 23> H -0.2772127811 -0.3583553873 -2.0417142267
| 24> H 0.6778991253 -2.2849408366 -0.7541963825
| 25> H 1.9088771653 -1.294301147 -1.5546772188
| 26> H 1.124366153 -1.1899820234 1.3885640089
| 27> H 2.6235921865 -1.8490711037 0.7348245696
| 28> H 2.962529217 0.4533149506 1.6195150057
| 29> H 3.2608687239 0.3857823105 -0.120261605
| 30> H 0.6767903162 1.3194404582 1.2053888939
| 31> H 1.8833798849 2.3671741599 0.4532774939
| 32> H -0.0054597351 1.9332441839 -1.1040407052
| 33> H 1.507065141 1.2623094976 -1.7297435995
| 34> *
| 35>
| 36>                          ****END OF INPUT****

CARTESIAN COORDINATES (ANGSTROEM)
---------------------------------
  C     -3.058569    0.722195    0.612922
  O     -1.855355    0.707630   -0.160308
  C     -1.069693   -0.362874   -0.110972
  O     -1.319190   -1.341286    0.562090
  C      0.126863   -0.221473   -1.031135
  C      1.167244   -1.309410   -0.754764
  C      1.859313   -1.084151    0.587480
  C      2.488827    0.304093    0.647742
  C      1.428722    1.375954    0.414154
  C      0.758140    1.172635   -0.941253
  H     -3.067505    1.650632    1.179753
  H     -3.081386   -0.139833    1.280676
  H     -3.903566    0.689231   -0.073211
  H     -0.277213   -0.358355   -2.041714
  H      0.677899   -2.284941   -0.754196
  H      1.908877   -1.294301   -1.554677
  H      1.124366   -1.189982    1.388564
  H      2.623592   -1.849071    0.734825
  H      2.962529    0.453315    1.619515
  H      3.260869    0.385782   -0.120262
  H      0.676790    1.319440    1.205389
  H      1.883380    2.367174    0.453277
  H     -0.005460    1.933244   -1.104041
  H      1.507065    1.262309   -1.729744

 Total Charge           Charge          ....    0
 Multiplicity           Mult            ....    1
 Number of Electrons    NEL             ....   78
 Basis Dimension        Dim             ....  270

ORBITAL ENERGIES
----------------

  NO   OCC          E(Eh)            E(eV)
   0   2.0000     -19.002427      -517.0823
   1   2.0000     -18.942369      -515.4481
   2   2.0000     -10.160771      -276.4886
   3   2.0000     -10.074503      -274.1412
   4   2.0000     -10.042191      -273.2619
   5   2.0000     -10.021441      -272.6973
   6   2.0000     -10.019596      -272.6471
   7   2.0000     -10.016371      -272.5593
   8   2.0000     -10.014203      -272.5003
   9   2.0000     -10.013816      -272.4898
  10   2.0000      -1.077960       -29.3328
  11   2.0000      -0.987986       -26.8845
  12   2.0000      -0.802305       -21.8318
  13   2.0000      -0.729301       -19.8453
  14   2.0000      -0.704253       -19.1637
  15   2.0000      -0.684269       -18.6199
  16   2.0000      -0.589955       -16.0535
  17   2.0000      -0.569102       -15.4861
  18   2.0000      -0.539449       -14.6791
  19   2.0000      -0.514588       -14.0026
  20   2.0000      -0.464127       -12.6295
  21   2.0000      -0.453249       -12.3335
  22   2.0000      -0.452515       -12.3135
  23   2.0000      -0.435124       -11.8403
  24   2.0000      -0.405694       -11.0395
  25   2.0000      -0.402885       -10.9631
  26   2.0000      -0.390015       -10.6128
  27   2.0000      -0.371733       -10.1154
  28   2.0000      -0.343061        -9.3352
  29   2.0000      -0.341188        -9.2842
  30   2.0000      -0.336788        -9.1645
  31   2.0000      -0.333318        -9.0701
  32   2.0000      -0.315394        -8.5823
  33   2.0000      -0.305758        -8.3201
  34   2.0000      -0.287679        -7.8281
  35   2.0000      -0.278020        -7.5653
  36   2.0000      -0.263254        -7.1635
  37   2.0000      -0.262356        -7.1391
  38   2.0000      -0.247513        -6.7352
  39   0.0000      -0.022547        -0.6135
  40   0.0000       0.068155         1.8546
  41   0.0000       0.092817         2.5257
  42   0.0000       0.111361         3.0303
  43   0.0000       0.120197         3.2707

MULLIKEN ATOMIC CHARGES
-----------------------
   0 C :   -0.325451
   1 O :   -0.189779
   2 C :    0.256445
   3 O :   -0.501445
   4 C :    0.081692
   5 C :   -0.373731
   6 C :   -0.320287
   7 C :   -0.327099
   8 C :   -0.289685
   9 C :   -0.357724
  10 H :    0.174575
  11 H :    0.185516
  12 H :    0.175698
  13 H :    0.194448
  14 H :    0.159602
  15 H :    0.174201
  16 H :    0.165629
  17 H :    0.156856
  18 H :    0.156384
  19 H :    0.154039
  20 H :    0.155723
  21 H :    0.160238
  22 H :    0.165912
  23 H :    0.168244
Sum of atomic charges:    0.0000000

LOEWDIN ATOMIC CHARGES
----------------------
   0 C :   -0.040706
   1 O :   -0.612861
   2 C :    0.373489
   3 O :   -0.503934
   4 C :   -0.150234
   5 C :   -0.280482
   6 C :   -0.300230
   7 C :   -0.303854
   8 C :   -0.297340
   9 C :   -0.273161
  10 H :    0.184841
  11 H :    0.192063
  12 H :    0.183532
  13 H :    0.198280
  14 H :    0.169564
  15 H :    0.165903
  16 H :    0.164179
  17 H :    0.157873
  18 H :    0.156628
  19 H :    0.157980
  20 H :    0.160970
  21 H :    0.159277
  22 H :    0.172859
  23 H :    0.165365

  Mayer bond orders larger than 0.100000
B(  0-C ,  1-O ) :   0.8261 B(  0-C , 10-H ) :   0.9569 B(  0-C , 11-H ) :   0.9659
B(  0-C , 12-H ) :   0.9540 B(  1-O ,  2-C ) :   1.0975 B(  2-C ,  3-O ) :   1.8092
B(  2-C ,  4-C ) :   0.9676 B(  4-C ,  5-C ) :   0.9145 B(  4-C ,  9-C ) :   0.8779
B(  4-C , 13-H ) :   0.8827 B(  5-C ,  6-C ) :   0.9083 B(  5-C , 14-H ) :   0.9519
B(  5-C , 15-H ) :   0.9810 B(  6-C ,  7-C ) :   0.9066 B(  6-C , 16-H ) :   0.9866
B(  6-C , 17-H ) :   0.9385 B(  7-C ,  8-C ) :   0.9160 B(  7-C , 18-H ) :   0.9462
B(  7-C , 19-H ) :   0.9978 B(  8-C ,  9-C ) :   0.9106 B(  8-C , 20-H ) :   0.9814
B(  8-C , 21-H ) :   0.9375 B(  9-C , 22-H ) :   0.9435 B(  9-C , 23-H ) :   0.9786

Dispersion correction           -0.007919648
FINAL SINGLE POINT ENERGY      -463.638349073286

DIPOLE MOMENT
-------------

Method             : SCF
Type of density    : Electron Density
Multiplicity       :   1
Irrep              :   0
Energy             :  -463.6438286195420915 Eh
Relativity type    :
Basis              : AO
                                X                 Y                 Z
Electronic contribution:     -5.898215411      -1.726152620      -0.938569525
Nuclear contribution   :      5.854228444       2.753174593       0.460174818
                        -----------------------------------------
Total Dipole Moment    :     -0.043986967       1.027021973      -0.478394707
                        -----------------------------------------
Magnitude (a.u.)       :      1.133830006
Magnitude (Debye)      :      2.881966842

Rotational constants in cm-1:             0.076761             0.032418             0.028337
Rotational constants in MHz :          2301.235832           971.880341           849.521211

                             ****ORCA TERMINATED NORMALLY****
TOTAL RUN TIME: 0 days 0 hours 0 minutes 44 seconds 611 msec
