                         Program Version 6.0.0  -   RELEASE  -
|  1> ! wb97x-v def2-tzvp def2/J RIJCOSX DEFGRID2 scfconv7 GCP(DFT/TZ) printgap
|  2> %output
|  3>     printlevel normal
|  4> end
|  5> * xyz 0 1
|  6> C 1.53543815316336 1.1919492294067862 5.91623232667717e-05
|  7> C 0.15172494721574853 1.2426806294429757 -0.00015676108764608966
|  8> C -0.5460255548727274 0.029929689854061442 -0.0004251376297638686
|  9> C 0.17129811201767395 -1.1742404943514604 -0.00027188880000562075
| 10> N 1.5029837400025106 -1.2193451799794583 -0.00011727958254072722
| 11> C 2.1621134820852115 -0.049387475458148214 3.0713925641440927e-06
| 12> C -1.9645029337363027 0.0036546980123306366 -0.0005173429383705778
| 13> N -3.1245652641032926 -0.027828919968595524 0.0008388330567774516
| 14> H 2.124844919024187 2.1014550909621756 7.968830882491845e-05
| 15> H -0.38454273837493014 2.184721524392818 -0.00013520710905031192
| 16> H -0.362067896208026 -2.1210688206432056 -0.0001726679908872762
| 17> H 3.2472813067219217 -0.11035980864241594 -0.0002732391848077474
| 18> *
| 19>
| 20>                          ****END OF INPUT****

CARTESIAN COORDINATES (ANGSTROEM)
---------------------------------
  C      1.535438    1.191949    0.000059
  C      0.151725    1.242681   -0.000157
  C     -0.546026    0.029930   -0.000425
  C      0.171298   -1.174240   -0.000272
  N      1.502984   -1.219345   -0.000117
  C      2.162113   -0.049387    0.000003
  C     -1.964503    0.003655   -0.000517
  N     -3.124565   -0.027829    0.000839
  H      2.124845    2.101455    0.000080
  H     -0.384543    2.184722   -0.000135
  H     -0.362068   -2.121069   -0.000173
  H      3.247281   -0.110360   -0.000273

 Total Charge           Charge          ....    0
 Multiplicity           Mult            ....    1
 Number of Electrons    NEL             ....   54
 Basis Dimension        Dim             ....  272

ORBITAL ENERGIES
----------------

  NO   OCC          E(Eh)            E(eV)
   0   2.0000     -16.556680      -450.5302
   1   2.0000     -16.541017      -450.1040
   2   2.0000     -12.122660      -329.8744
   3   2.0000     -12.117537      -329.7349
   4   2.0000     -12.117189      -329.7255
   5   2.0000     -12.108604      -329.4919
   6   2.0000     -12.100192      -329.2630
   7   2.0000     -12.089488      -328.9717
   8   2.0000      -1.552304       -42.2403
   9   2.0000      -1.530885       -41.6575
  10   2.0000      -1.392651       -37.8960
  11   2.0000      -1.341412       -36.5017
  12   2.0000      -1.218349       -33.1530
  13   2.0000      -1.180850       -32.1326
  14   2.0000      -1.087205       -29.5843
  15   2.0000      -1.035175       -28.1685
  16   2.0000      -1.000627       -27.2284
  17   2.0000      -0.932537       -25.3756
  18   2.0000      -0.911119       -24.7928
  19   2.0000      -0.908671       -24.7262
  20   2.0000      -0.880237       -23.9525
  21   2.0000      -0.869955       -23.6727
  22   2.0000      -0.825502       -22.4630
  23   2.0000      -0.818702       -22.2780
  24   2.0000      -0.791669       -21.5424
  25   2.0000      -0.732209       -19.9244
  26   2.0000      -0.686550       -18.6820
  27   0.0000      -0.334905        -9.1132
  28   0.0000      -0.305682        -8.3180
  29   0.0000      -0.248666        -6.7665
  30   0.0000      -0.198161        -5.3922
  31   0.0000      -0.110428        -3.0049

MULLIKEN ATOMIC CHARGES
-----------------------
   0 C :   -0.083541
   1 C :   -0.196502
   2 C :    0.275254
   3 C :   -0.092725
   4 N :   -0.207801
   5 C :   -0.029368
   6 C :   -0.263867
   7 N :    0.011661
   8 H :    0.138667
   9 H :    0.158390
  10 H :    0.152606
  11 H :    0.137227
Sum of atomic charges:    0.0000000

LOEWDIN ATOMIC CHARGES
----------------------
   0 C :   -0.137361
   1 C :   -0.051881
   2 C :   -0.158876
   3 C :   -0.133541
   4 N :    0.135614
   5 C :   -0.172861
   6 C :   -0.152118
   7 N :    0.073157
   8 H :    0.149849
   9 H :    0.157867
  10 H :    0.149439
  11 H :    0.140712

  Mayer bond orders larger than 0.100000
B(  0-C ,  1-C ) :   1.4757 B(  0-C ,  5-C ) :   1.4041 B(  0-C ,  8-H ) :   0.9620
B(  1-C ,  2-C ) :   1.3685 B(  1-C ,  9-H ) :   0.9602 B(  2-C ,  3-C ) :   1.3399
B(  2-C ,  6-C ) :   0.9184 B(  3-C ,  4-N ) :   1.5299 B(  3-C , 10-H ) :   0.9789
B(  4-N ,  5-C ) :   1.4768 B(  5-C , 11-H ) :   0.9783 B(  6-C ,  7-N ) :   3.1219

FINAL SINGLE POINT ENERGY      -340.539468387847

DIPOLE MOMENT
-------------

Method             : SCF
Type of density    : Electron Density
Multiplicity       :   1
Irrep              :   0
Energy             :  -340.5446493927471465 Eh
Relativity type    :
Basis              : AO
                                X                 Y                 Z
Electronic contribution:     -2.960059220      -1.121956730      -0.000506073
Nuclear contribution   :      4.327504244       1.937089249      -0.000245218
                        -----------------------------------------
Total Dipole Moment    :      1.367445024       0.815132519      -0.000751290
                        -----------------------------------------
Magnitude (a.u.)       :      1.591963405
Magnitude (Debye)      :      4.046449398

Rotational constants in cm-1:             0.194082             0.052865             0.041548
Rotational constants in MHz :          5818.429007          1584.855562          1245.578249

                             ****ORCA TERMINATED NORMALLY****
TOTAL RUN TIME: 0 days 0 hours 1 minutes 13 seconds 61 msec
