                         Program Version 6.0.0  -   RELEASE  -
|  1> ! wb97x-v def2-tzvp def2/J RIJCOSX DEFGRID2 scfconv7 GCP(DFT/TZ) printgap
|  2> %output
|  3>     printlevel normal
|  4> end
|  5> %cpcm
|  6>     smd true
|  7>     smdsolvent "water"
|  8> end
|  9> * xyz 0 1
| 10> C 1.53543815316336 1.1919492294067862 5.91623232667717e-05
| 11> C 0.15172494721574853 1.2426806294429757 -0.00015676108764608966
| 12> C -0.5460255548727274 0.029929689854061442 -0.0004251376297638686
| 13> C 0.17129811201767395 -1.1742404943514604 -0.00027188880000562075
| 14> N 1.5029837400025106 -1.2193451799794583 -0.00011727958254072722
| 15> C 2.1621134820852115 -0.049387475458148214 3.0713925641440927e-06
| 16> C -1.9645029337363027 0.0036546980123306366 -0.0005173429383705778
| 17> N -3.1245652641032926 -0.027828919968595524 0.0008388330567774516
| 18> H 2.124844919024187 2.1014550909621756 7.968830882491845e-05
| 19> H -0.38454273837493014 2.184721524392818 -0.00013520710905031192
| 20> H -0.362067896208026 -2.1210688206432056 -0.0001726679908872762
| 21> H 3.2472813067219217 -0.11035980864241594 -0.0002732391848077474
| 22> *
| 23>
| 24>                          ****END OF INPUT****

CARTESIAN COORDINATES (ANGSTROEM)
---------------------------------
  C      1.535438    1.191949    0.000059
  C      0.151725    1.242681   -0.000157
  C     -0.546026    0.029930   -0.000425
  C      0.171298   -1.174240   -0.000272
  N      1.502984   -1.219345   -0.000117
  C      2.162113   -0.049387    0.000003
  C     -1.964503    0.003655   -0.000517
  N     -3.124565   -0.027829    0.000839
  H      2.124845    2.101455    0.000080
  H     -0.384543    2.184722   -0.000135
  H     -0.362068   -2.121069   -0.000173
  H      3.247281   -0.110360   -0.000273

 Total Charge           Charge          ....    0
 Multiplicity           Mult            ....    1
 Number of Electrons    NEL             ....   54
 Basis Dimension        Dim             ....  272

ORBITAL ENERGIES
----------------

  NO   OCC          E(Eh)            E(eV)
   0   2.0000     -16.544194      -450.1904
   1   2.0000     -16.541791      -450.1250
   2   2.0000     -12.108128      -329.4789
   3   2.0000     -12.107714      -329.4676
   4   2.0000     -12.101590      -329.3010
   5   2.0000     -12.100150      -329.2618
   6   2.0000     -12.089556      -328.9735
   7   2.0000     -12.067228      -328.3660
   8   2.0000      -1.540036       -41.9065
   9   2.0000      -1.534666       -41.7604
  10   2.0000      -1.376878       -37.4668
  11   2.0000      -1.324365       -36.0378
  12   2.0000      -1.205092       -32.7922
  13   2.0000      -1.162217       -31.6255
  14   2.0000      -1.075219       -29.2582
  15   2.0000      -1.017401       -27.6849
  16   2.0000      -0.981244       -26.7010
  17   2.0000      -0.920940       -25.0601
  18   2.0000      -0.906573       -24.6691
  19   2.0000      -0.890643       -24.2356
  20   2.0000      -0.861074       -23.4310
  21   2.0000      -0.859737       -23.3946
  22   2.0000      -0.826370       -22.4867
  23   2.0000      -0.820945       -22.3390
  24   2.0000      -0.781767       -21.2730
  25   2.0000      -0.717921       -19.5356
  26   2.0000      -0.670638       -18.2490
  27   0.0000      -0.320125        -8.7111
  28   0.0000      -0.291674        -7.9369
  29   0.0000      -0.247827        -6.7437
  30   0.0000      -0.189073        -5.1449
  31   0.0000      -0.100559        -2.7363

MULLIKEN ATOMIC CHARGES
-----------------------
   0 C :   -0.118246
   1 C :   -0.206364
   2 C :    0.272245
   3 C :   -0.090439
   4 N :   -0.278012
   5 C :   -0.022814
   6 C :   -0.187842
   7 N :   -0.097698
   8 H :    0.179750
   9 H :    0.192162
  10 H :    0.183575
  11 H :    0.173682
Sum of atomic charges:    0.0000000

LOEWDIN ATOMIC CHARGES
----------------------
   0 C :   -0.126840
   1 C :   -0.033437
   2 C :   -0.157739
   3 C :   -0.130787
   4 N :    0.097641
   5 C :   -0.167369
   6 C :   -0.127018
   7 N :    0.004882
   8 H :    0.162356
   9 H :    0.170367
  10 H :    0.157764
  11 H :    0.150178

  Mayer bond orders larger than 0.100000
B(  0-C ,  1-C ) :   1.4716 B(  0-C ,  5-C ) :   1.4209 B(  0-C ,  8-H ) :   0.9567
B(  1-C ,  2-C ) :   1.3341 B(  1-C ,  9-H ) :   0.9637 B(  2-C ,  3-C ) :   1.3396
B(  2-C ,  6-C ) :   0.9414 B(  3-C ,  4-N ) :   1.5270 B(  3-C , 10-H ) :   0.9639
B(  4-N ,  5-C ) :   1.4578 B(  5-C , 11-H ) :   0.9586 B(  6-C ,  7-N ) :   3.1179

FINAL SINGLE POINT ENERGY      -340.550415586714

DIPOLE MOMENT
-------------

Method             : SCF
Type of density    : Electron Density
Multiplicity       :   1
Irrep              :   0
Energy             :  -340.5555965916137211 Eh
Relativity type    :
Basis              : AO
                                X                 Y                 Z
Electronic contribution:     -2.544594312      -0.765324860      -0.000841218
Nuclear contribution   :      4.327504244       1.937089249      -0.000245218
                        -----------------------------------------
Total Dipole Moment    :      1.782909933       1.171764390      -0.001086436
                        -----------------------------------------
Magnitude (a.u.)       :      2.133494972
Magnitude (Debye)      :      5.422913252

Rotational constants in cm-1:             0.194082             0.052865             0.041548
Rotational constants in MHz :          5818.429007          1584.855562          1245.578249

                             ****ORCA TERMINATED NORMALLY****
TOTAL RUN TIME: 0 days 0 hours 1 minutes 32 seconds 569 msec
