                         Program Version 6.0.0  -   RELEASE  -
|  1> ! pbe def2-sv(p) def2/J RI DEFGRID1 loosescf d4 GCP(DFT/SV(P)) printgap
|  2> %output
|  3>     printlevel normal
|  4> end
|  5> * xyz 0 1
|  6> C 4.4384315136 -0.3779930361 -0.0744304089
|  7> C 3.7154019543 -0.5183560096 -1.2471804089
|  8> C 2.3601415443 -0.2372359301 -1.266181021
|  9> C 1.7375533109 0.1866203677 -0.1029686457
| 10> C 2.4534973821 0.327970249 1.0750344772
| 11> C 3.8083365353 0.0443798053 1.0842286996
| 12> N 0.3324356594 0.4678126838 -0.1149354145
| 13> C -0.552996322 -0.5732104637 0.1452230742
| 14> O -0.1287133141 -1.7109677289 0.3806437299
| 15> C -1.9225755526 -0.1840871312 0.1084279269
| 16> C -2.3342770751 1.1097792231 -0.1617223658
| 17> C -1.2652517537 2.0368920857 -0.4027283141
| 18> N -0.0201473408 1.7119863739 -0.3749192053
| 19> N -3.6116222213 1.4910558551 -0.2004563946
| 20> Cl -3.0839812217 -1.4442480819 0.4278664025
| 21> H 5.4936996894 -0.6014516088 -0.0626566854
| 22> H 4.2037797789 -0.8499657798 -2.149982921
| 23> H 1.7839082967 -0.3493552446 -2.1714887808
| 24> H 1.9491913519 0.6512685814 1.9724186108
| 25> H 4.3690064531 0.1503381499 1.9996024247
| 26> H -1.4717693506 3.0713293057 -0.622494502
| 27> H -3.8534044617 2.4448245407 -0.4025164474
| 28> H -4.3262394162 0.8047191196 -0.0247434574
| 29> *
| 30>
| 31>                          ****END OF INPUT****

CARTESIAN COORDINATES (ANGSTROEM)
---------------------------------
  C      4.438432   -0.377993   -0.074430
  C      3.715402   -0.518356   -1.247180
  C      2.360142   -0.237236   -1.266181
  C      1.737553    0.186620   -0.102969
  C      2.453497    0.327970    1.075034
  C      3.808337    0.044380    1.084229
  N      0.332436    0.467813   -0.114935
  C     -0.552996   -0.573210    0.145223
  O     -0.128713   -1.710968    0.380644
  C     -1.922576   -0.184087    0.108428
  C     -2.334277    1.109779   -0.161722
  C     -1.265252    2.036892   -0.402728
  N     -0.020147    1.711986   -0.374919
  N     -3.611622    1.491056   -0.200456
  Cl    -3.083981   -1.444248    0.427866
  H      5.493700   -0.601452   -0.062657
  H      4.203780   -0.849966   -2.149983
  H      1.783908   -0.349355   -2.171489
  H      1.949191    0.651269    1.972419
  H      4.369006    0.150338    1.999602
  H     -1.471769    3.071329   -0.622495
  H     -3.853404    2.444825   -0.402516
  H     -4.326239    0.804719   -0.024743

 Total Charge           Charge          ....    0
 Multiplicity           Mult            ....    1
 Number of Electrons    NEL             ....  114
 Basis Dimension        Dim             ....  230

ORBITAL ENERGIES
----------------

  NO   OCC          E(Eh)            E(eV)
   0   2.0000    -100.645174     -2738.6944
   1   2.0000     -18.703854      -508.9578
   2   2.0000     -14.078390      -383.0925
   3   2.0000     -14.038341      -382.0027
   4   2.0000     -14.030461      -381.7883
   5   2.0000      -9.981399      -271.6077
   6   2.0000      -9.970487      -271.3108
   7   2.0000      -9.945193      -270.6225
   8   2.0000      -9.939914      -270.4788
   9   2.0000      -9.939720      -270.4735
  10   2.0000      -9.900014      -269.3931
  11   2.0000      -9.899904      -269.3901
  12   2.0000      -9.897173      -269.3158
  13   2.0000      -9.897104      -269.3139
  14   2.0000      -9.895728      -269.2765
  15   2.0000      -9.179925      -249.7984
  16   2.0000      -7.011379      -190.7893
  17   2.0000      -6.999885      -190.4765
  18   2.0000      -6.999505      -190.4662
  19   2.0000      -0.978861       -26.6362
  20   2.0000      -0.901707       -24.5367
  21   2.0000      -0.878463       -23.9042
  22   2.0000      -0.802577       -21.8392
  23   2.0000      -0.787594       -21.4315
  24   2.0000      -0.761891       -20.7321
  25   2.0000      -0.702591       -19.1185
  26   2.0000      -0.678269       -18.4566
  27   2.0000      -0.675446       -18.3798
  28   2.0000      -0.604606       -16.4522
  29   2.0000      -0.602717       -16.4008
  30   2.0000      -0.554152       -15.0792
  31   2.0000      -0.550681       -14.9848
  32   2.0000      -0.537292       -14.6205
  33   2.0000      -0.499036       -13.5795
  34   2.0000      -0.487004       -13.2520
  35   2.0000      -0.458796       -12.4845
  36   2.0000      -0.448160       -12.1951
  37   2.0000      -0.439869       -11.9695
  38   2.0000      -0.411336       -11.1930
  39   2.0000      -0.400961       -10.9107
  40   2.0000      -0.391342       -10.6490
  41   2.0000      -0.382468       -10.4075
  42   2.0000      -0.382221       -10.4008
  43   2.0000      -0.350780        -9.5452
  44   2.0000      -0.347030        -9.4432
  45   2.0000      -0.335590        -9.1319
  46   2.0000      -0.333170        -9.0660
  47   2.0000      -0.321761        -8.7555
  48   2.0000      -0.309876        -8.4322
  49   2.0000      -0.284733        -7.7480
  50   2.0000      -0.272891        -7.4257
  51   2.0000      -0.256421        -6.9776
  52   2.0000      -0.236337        -6.4310
  53   2.0000      -0.234858        -6.3908
  54   2.0000      -0.222092        -6.0434
  55   2.0000      -0.191660        -5.2153
  56   2.0000      -0.189192        -5.1482
  57   0.0000      -0.074507        -2.0274
  58   0.0000      -0.043625        -1.1871
  59   0.0000      -0.038647        -1.0516
  60   0.0000      -0.018796        -0.5115
  61   0.0000       0.011768         0.3202

MULLIKEN ATOMIC CHARGES
-----------------------
   0 C :   -0.025846
   1 C :   -0.066644
   2 C :   -0.042697
   3 C :    0.176990
   4 C :   -0.043584
   5 C :   -0.066093
   6 N :   -0.186526
   7 C :    0.161001
   8 O :   -0.200455
   9 C :   -0.121337
  10 C :    0.125874
  11 C :   -0.200636
  12 N :    0.042731
  13 N :   -0.278989
  14 Cl:   -0.052670
  15 H :    0.057513
  16 H :    0.057844
  17 H :    0.043139
  18 H :    0.042616
  19 H :    0.057728
  20 H :    0.047895
  21 H :    0.237709
  22 H :    0.234437
Sum of atomic charges:    0.0000000

LOEWDIN ATOMIC CHARGES
----------------------
   0 C :   -0.115599
   1 C :   -0.115058
   2 C :   -0.102805
   3 C :    0.009490
   4 C :   -0.103364
   5 C :   -0.115069
   6 N :    0.068680
   7 C :   -0.011084
   8 O :   -0.216139
   9 C :   -0.213718
  10 C :   -0.037099
  11 C :   -0.153995
  12 N :   -0.010452
  13 N :   -0.270421
  14 Cl:    0.149613
  15 H :    0.126091
  16 H :    0.127042
  17 H :    0.131231
  18 H :    0.131051
  19 H :    0.126990
  20 H :    0.123123
  21 H :    0.241264
  22 H :    0.230230

  Mayer bond orders larger than 0.100000
B(  0-C ,  1-C ) :   1.3828 B(  0-C ,  5-C ) :   1.3830 B(  0-C , 15-H ) :   0.9651
B(  1-C ,  2-C ) :   1.3542 B(  1-C , 16-H ) :   0.9594 B(  2-C ,  3-C ) :   1.4259
B(  2-C , 17-H ) :   0.9622 B(  3-C ,  4-C ) :   1.4265 B(  3-C ,  6-N ) :   0.8451
B(  4-C ,  5-C ) :   1.3532 B(  4-C , 18-H ) :   0.9626 B(  5-C , 19-H ) :   0.9594
B(  6-N ,  7-C ) :   0.9640 B(  6-N , 12-N ) :   1.1511 B(  7-C ,  8-O ) :   2.1248
B(  7-C ,  9-C ) :   1.1139 B(  9-C , 10-C ) :   1.4839 B(  9-C , 14-Cl) :   1.0373
B( 10-C , 11-C ) :   1.0567 B( 10-C , 13-N ) :   1.3800 B( 11-C , 12-N ) :   1.7648
B( 11-C , 20-H ) :   0.9667 B( 13-N , 21-H ) :   0.8668 B( 13-N , 22-H ) :   0.8446

Dispersion correction           -0.032107721
FINAL SINGLE POINT ENERGY     -1083.936351545371

DIPOLE MOMENT
-------------

Method             : SCF
Type of density    : Electron Density
Multiplicity       :   1
Irrep              :   0
Energy             : -1083.9968064116878850 Eh
Relativity type    :
Basis              : AO
                                X                 Y                 Z
Electronic contribution:    -12.647684032      -5.320029113       1.619435059
Nuclear contribution   :     11.763697273       6.926025930      -1.943927419
                        -----------------------------------------
Total Dipole Moment    :     -0.883986759       1.605996817      -0.324492360
                        -----------------------------------------
Magnitude (a.u.)       :      1.861707189
Magnitude (Debye)      :      4.732083610

Rotational constants in cm-1:             0.043603             0.010492             0.009274
Rotational constants in MHz :          1307.180103           314.540006           278.026344

                             ****ORCA TERMINATED NORMALLY****
TOTAL RUN TIME: 0 days 0 hours 0 minutes 15 seconds 125 msec
