                         Program Version 6.0.0  -   RELEASE  -
|  1> ! wb97x-v def2-tzvp def2/J RIJCOSX DEFGRID2 scfconv7 GCP(DFT/TZ) printgap
|  2> %output
|  3>     printlevel normal
|  4> end
|  5> * xyz 0 1
|  6> C -0.708056724131515 -2.9633433439902612 0.2242129572130242
|  7> C 0.6773967676905713 -2.975788695549674 0.31069434844880256
|  8> C 1.3868749669764076 -1.7837563447174898 0.2468748140330249
|  9> C 0.730149348144238 -0.5606696730299686 0.09612432675554061
| 10> C -0.6731684645892666 -0.5492007635253656 0.010131599131991399
| 11> C -1.3736907691785207 -1.7555294102357977 0.07521873771042498
| 12> C -1.566640019937306 0.6577363188796841 -0.1530526328935936
| 13> F -2.30775775345998 0.5528544850938215 -1.28946607395427
| 14> F -2.4564062404260976 0.7339142155944864 0.8737116241712963
| 15> F -0.94537664750359 1.846942024769329 -0.20960021927114392
| 16> C 1.590360367488833 0.6807438838510296 0.03434684683595886
| 17> F 2.906583379429585 0.38577663610397017 0.13530490519053578
| 18> F 1.4474687742844525 1.354056167975084 -1.134644430354498
| 19> F 1.3244748523327305 1.5499988782713245 1.0412312994214148
| 20> H -1.2736813797040896 -3.8871729433591615 0.2718852248406648
| 21> H 1.2138779809683597 -3.9108719819501636 0.4274828970497121
| 22> H 2.466613055896677 -1.8075573010741857 0.3151085745548893
| 23> H -2.4562556700039258 -1.7459194169339216 0.007306592156064327
| 24> *
| 25>
| 26>                          ****END OF INPUT****

CARTESIAN COORDINATES (ANGSTROEM)
---------------------------------
  C     -0.708057   -2.963343    0.224213
  C      0.677397   -2.975789    0.310694
  C      1.386875   -1.783756    0.246875
  C      0.730149   -0.560670    0.096124
  C     -0.673168   -0.549201    0.010132
  C     -1.373691   -1.755529    0.075219
  C     -1.566640    0.657736   -0.153053
  F     -2.307758    0.552854   -1.289466
  F     -2.456406    0.733914    0.873712
  F     -0.945377    1.846942   -0.209600
  C      1.590360    0.680744    0.034347
  F      2.906583    0.385777    0.135305
  F      1.447469    1.354056   -1.134644
  F      1.324475    1.549999    1.041231
  H     -1.273681   -3.887173    0.271885
  H      1.213878   -3.910872    0.427483
  H      2.466613   -1.807557    0.315109
  H     -2.456256   -1.745919    0.007307

 Total Charge           Charge          ....    0
 Multiplicity           Mult            ....    1
 Number of Electrons    NEL             ....  106
 Basis Dimension        Dim             ....  458

ORBITAL ENERGIES
----------------

  NO   OCC          E(Eh)            E(eV)
   0   2.0000     -27.605839      -751.1931
   1   2.0000     -27.604206      -751.1486
   2   2.0000     -27.600647      -751.0518
   3   2.0000     -27.600505      -751.0479
   4   2.0000     -27.599165      -751.0115
   5   2.0000     -27.599029      -751.0078
   6   2.0000     -12.314776      -335.1021
   7   2.0000     -12.314661      -335.0990
   8   2.0000     -12.116205      -329.6987
   9   2.0000     -12.113904      -329.6361
  10   2.0000     -12.093325      -329.0761
  11   2.0000     -12.092400      -329.0509
  12   2.0000     -12.090198      -328.9910
  13   2.0000     -12.088193      -328.9364
  14   2.0000      -2.064727       -56.1841
  15   2.0000      -2.063867       -56.1607
  16   2.0000      -2.017172       -54.8900
  17   2.0000      -2.015615       -54.8477
  18   2.0000      -2.012036       -54.7503
  19   2.0000      -2.011543       -54.7369
  20   2.0000      -1.446221       -39.3537
  21   2.0000      -1.398894       -38.0659
  22   2.0000      -1.387736       -37.7622
  23   2.0000      -1.320917       -35.9440
  24   2.0000      -1.320516       -35.9331
  25   2.0000      -1.261605       -34.3300
  26   2.0000      -1.258839       -34.2547
  27   2.0000      -1.257241       -34.2113
  28   2.0000      -1.255550       -34.1653
  29   2.0000      -1.224498       -33.3203
  30   2.0000      -1.204942       -32.7881
  31   2.0000      -1.168719       -31.8025
  32   2.0000      -1.168020       -31.7834
  33   2.0000      -1.167646       -31.7733
  34   2.0000      -1.167640       -31.7731
  35   2.0000      -1.155599       -31.4455
  36   2.0000      -1.154608       -31.4185
  37   2.0000      -1.152582       -31.3633
  38   2.0000      -1.151077       -31.3224
  39   2.0000      -1.148435       -31.2505
  40   2.0000      -1.147709       -31.2308
  41   2.0000      -1.142449       -31.0876
  42   2.0000      -1.140871       -31.0447
  43   2.0000      -1.042071       -28.3562
  44   2.0000      -1.009699       -27.4753
  45   2.0000      -0.998621       -27.1739
  46   2.0000      -0.952178       -25.9101
  47   2.0000      -0.923329       -25.1250
  48   2.0000      -0.873275       -23.7630
  49   2.0000      -0.858829       -23.3699
  50   2.0000      -0.821944       -22.3662
  51   2.0000      -0.695589       -18.9280
  52   2.0000      -0.686888       -18.6912
  53   0.0000      -0.343437        -9.3454
  54   0.0000      -0.294855        -8.0234
  55   0.0000      -0.285337        -7.7644
  56   0.0000      -0.278639        -7.5822
  57   0.0000      -0.254577        -6.9274

MULLIKEN ATOMIC CHARGES
-----------------------
   0 C :   -0.113151
   1 C :   -0.112886
   2 C :   -0.132359
   3 C :   -0.040700
   4 C :    0.039805
   5 C :   -0.183146
   6 C :    0.438868
   7 F :   -0.160997
   8 F :   -0.161327
   9 F :   -0.143177
  10 C :    0.459937
  11 F :   -0.160789
  12 F :   -0.154110
  13 F :   -0.153889
  14 H :    0.136840
  15 H :    0.136239
  16 H :    0.158253
  17 H :    0.146589
Sum of atomic charges:    0.0000000

LOEWDIN ATOMIC CHARGES
----------------------
   0 C :   -0.113332
   1 C :   -0.113533
   2 C :   -0.082638
   3 C :   -0.084160
   4 C :   -0.082254
   5 C :   -0.077352
   6 C :   -0.599429
   7 F :    0.179935
   8 F :    0.179929
   9 F :    0.214570
  10 C :   -0.599201
  11 F :    0.190826
  12 F :    0.186045
  13 F :    0.186080
  14 H :    0.149411
  15 H :    0.149305
  16 H :    0.156850
  17 H :    0.158949

  Mayer bond orders larger than 0.100000
B(  0-C ,  1-C ) :   1.4178 B(  0-C ,  5-C ) :   1.4161 B(  0-C , 14-H ) :   0.9675
B(  1-C ,  2-C ) :   1.4030 B(  1-C , 15-H ) :   0.9706 B(  2-C ,  3-C ) :   1.3909
B(  2-C , 16-H ) :   0.9551 B(  3-C ,  4-C ) :   1.3069 B(  3-C , 10-C ) :   1.0097
B(  4-C ,  5-C ) :   1.4244 B(  4-C ,  6-C ) :   1.0078 B(  5-C , 17-H ) :   0.9517
B(  6-C ,  7-F ) :   1.1663 B(  6-C ,  8-F ) :   1.1658 B(  6-C ,  9-F ) :   1.1722
B( 10-C , 11-F ) :   1.1596 B( 10-C , 12-F ) :   1.1681 B( 10-C , 13-F ) :   1.1686

FINAL SINGLE POINT ENERGY      -906.410881505580

DIPOLE MOMENT
-------------

Method             : SCF
Type of density    : Electron Density
Multiplicity       :   1
Irrep              :   0
Energy             :  -906.4382797434795975 Eh
Relativity type    :
Basis              : AO
                                X                 Y                 Z
Electronic contribution:      0.055221057      14.849499865      -1.338016867
Nuclear contribution   :     -0.016638366     -16.605639322       1.499963938
                        -----------------------------------------
Total Dipole Moment    :      0.038582692      -1.756139457       0.161947072
                        -----------------------------------------
Magnitude (a.u.)       :      1.764012832
Magnitude (Debye)      :      4.483764288

Rotational constants in cm-1:             0.028093             0.023973             0.015020
Rotational constants in MHz :           842.214615           718.686692           450.284338

                             ****ORCA TERMINATED NORMALLY****
TOTAL RUN TIME: 0 days 0 hours 5 minutes 6 seconds 391 msec
