                         Program Version 6.0.0  -   RELEASE  -
|  1> ! wb97x-v def2-tzvp def2/J RIJCOSX DEFGRID2 scfconv7 GCP(DFT/TZ) printgap
|  2> %output
|  3>     printlevel normal
|  4> end
|  5> %cpcm
|  6>     smd true
|  7>     smdsolvent "water"
|  8> end
|  9> * xyz 0 1
| 10> C -0.708056724131515 -2.9633433439902612 0.2242129572130242
| 11> C 0.6773967676905713 -2.975788695549674 0.31069434844880256
| 12> C 1.3868749669764076 -1.7837563447174898 0.2468748140330249
| 13> C 0.730149348144238 -0.5606696730299686 0.09612432675554061
| 14> C -0.6731684645892666 -0.5492007635253656 0.010131599131991399
| 15> C -1.3736907691785207 -1.7555294102357977 0.07521873771042498
| 16> C -1.566640019937306 0.6577363188796841 -0.1530526328935936
| 17> F -2.30775775345998 0.5528544850938215 -1.28946607395427
| 18> F -2.4564062404260976 0.7339142155944864 0.8737116241712963
| 19> F -0.94537664750359 1.846942024769329 -0.20960021927114392
| 20> C 1.590360367488833 0.6807438838510296 0.03434684683595886
| 21> F 2.906583379429585 0.38577663610397017 0.13530490519053578
| 22> F 1.4474687742844525 1.354056167975084 -1.134644430354498
| 23> F 1.3244748523327305 1.5499988782713245 1.0412312994214148
| 24> H -1.2736813797040896 -3.8871729433591615 0.2718852248406648
| 25> H 1.2138779809683597 -3.9108719819501636 0.4274828970497121
| 26> H 2.466613055896677 -1.8075573010741857 0.3151085745548893
| 27> H -2.4562556700039258 -1.7459194169339216 0.007306592156064327
| 28> *
| 29>
| 30>                          ****END OF INPUT****

CARTESIAN COORDINATES (ANGSTROEM)
---------------------------------
  C     -0.708057   -2.963343    0.224213
  C      0.677397   -2.975789    0.310694
  C      1.386875   -1.783756    0.246875
  C      0.730149   -0.560670    0.096124
  C     -0.673168   -0.549201    0.010132
  C     -1.373691   -1.755529    0.075219
  C     -1.566640    0.657736   -0.153053
  F     -2.307758    0.552854   -1.289466
  F     -2.456406    0.733914    0.873712
  F     -0.945377    1.846942   -0.209600
  C      1.590360    0.680744    0.034347
  F      2.906583    0.385777    0.135305
  F      1.447469    1.354056   -1.134644
  F      1.324475    1.549999    1.041231
  H     -1.273681   -3.887173    0.271885
  H      1.213878   -3.910872    0.427483
  H      2.466613   -1.807557    0.315109
  H     -2.456256   -1.745919    0.007307

 Total Charge           Charge          ....    0
 Multiplicity           Mult            ....    1
 Number of Electrons    NEL             ....  106
 Basis Dimension        Dim             ....  458

ORBITAL ENERGIES
----------------

  NO   OCC          E(Eh)            E(eV)
   0   2.0000     -27.608988      -751.2788
   1   2.0000     -27.605279      -751.1778
   2   2.0000     -27.602823      -751.1110
   3   2.0000     -27.602675      -751.1070
   4   2.0000     -27.602449      -751.1008
   5   2.0000     -27.602310      -751.0970
   6   2.0000     -12.313980      -335.0804
   7   2.0000     -12.313392      -335.0644
   8   2.0000     -12.102832      -329.3348
   9   2.0000     -12.100574      -329.2734
  10   2.0000     -12.074635      -328.5675
  11   2.0000     -12.073782      -328.5443
  12   2.0000     -12.069058      -328.4158
  13   2.0000     -12.066994      -328.3596
  14   2.0000      -2.067987       -56.2728
  15   2.0000      -2.065938       -56.2170
  16   2.0000      -2.020869       -54.9906
  17   2.0000      -2.017082       -54.8876
  18   2.0000      -2.015920       -54.8560
  19   2.0000      -2.013920       -54.8015
  20   2.0000      -1.435094       -39.0509
  21   2.0000      -1.398929       -38.0668
  22   2.0000      -1.381446       -37.5911
  23   2.0000      -1.308571       -35.6080
  24   2.0000      -1.307280       -35.5729
  25   2.0000      -1.264914       -34.4200
  26   2.0000      -1.260996       -34.3134
  27   2.0000      -1.260452       -34.2987
  28   2.0000      -1.258540       -34.2466
  29   2.0000      -1.220087       -33.2002
  30   2.0000      -1.203200       -32.7407
  31   2.0000      -1.172013       -31.8921
  32   2.0000      -1.171181       -31.8695
  33   2.0000      -1.170480       -31.8504
  34   2.0000      -1.170056       -31.8388
  35   2.0000      -1.158090       -31.5132
  36   2.0000      -1.157229       -31.4898
  37   2.0000      -1.156022       -31.4570
  38   2.0000      -1.154230       -31.4082
  39   2.0000      -1.151883       -31.3443
  40   2.0000      -1.151000       -31.3203
  41   2.0000      -1.131260       -30.7831
  42   2.0000      -1.128305       -30.7027
  43   2.0000      -1.032152       -28.0863
  44   2.0000      -0.997326       -27.1386
  45   2.0000      -0.981119       -26.6976
  46   2.0000      -0.932402       -25.3720
  47   2.0000      -0.903501       -24.5855
  48   2.0000      -0.851126       -23.1603
  49   2.0000      -0.837726       -22.7957
  50   2.0000      -0.806466       -21.9451
  51   2.0000      -0.678642       -18.4668
  52   2.0000      -0.670245       -18.2383
  53   0.0000      -0.332576        -9.0499
  54   0.0000      -0.286073        -7.7845
  55   0.0000      -0.279872        -7.6157
  56   0.0000      -0.279806        -7.6139
  57   0.0000      -0.251551        -6.8451

MULLIKEN ATOMIC CHARGES
-----------------------
   0 C :   -0.143558
   1 C :   -0.147210
   2 C :   -0.155172
   3 C :   -0.019406
   4 C :    0.060014
   5 C :   -0.210880
   6 C :    0.448629
   7 F :   -0.172481
   8 F :   -0.172540
   9 F :   -0.159171
  10 C :    0.463006
  11 F :   -0.166655
  12 F :   -0.168801
  13 F :   -0.168746
  14 H :    0.175540
  15 H :    0.174609
  16 H :    0.182351
  17 H :    0.180472
Sum of atomic charges:    0.0000000

LOEWDIN ATOMIC CHARGES
----------------------
   0 C :   -0.106802
   1 C :   -0.106817
   2 C :   -0.079418
   3 C :   -0.090408
   4 C :   -0.090694
   5 C :   -0.077759
   6 C :   -0.595868
   7 F :    0.173143
   8 F :    0.173235
   9 F :    0.204173
  10 C :   -0.596283
  11 F :    0.188073
  12 F :    0.176162
  13 F :    0.176119
  14 H :    0.160675
  15 H :    0.160497
  16 H :    0.164303
  17 H :    0.167669

  Mayer bond orders larger than 0.100000
B(  0-C ,  1-C ) :   1.4000 B(  0-C ,  5-C ) :   1.4019 B(  0-C , 14-H ) :   0.9701
B(  1-C ,  2-C ) :   1.3903 B(  1-C , 15-H ) :   0.9735 B(  2-C ,  3-C ) :   1.3582
B(  2-C , 16-H ) :   0.9666 B(  3-C ,  4-C ) :   1.2861 B(  3-C , 10-C ) :   1.0131
B(  4-C ,  5-C ) :   1.3848 B(  4-C ,  6-C ) :   1.0121 B(  5-C , 17-H ) :   0.9572
B(  6-C ,  7-F ) :   1.1641 B(  6-C ,  8-F ) :   1.1638 B(  6-C ,  9-F ) :   1.1562
B( 10-C , 11-F ) :   1.1651 B( 10-C , 12-F ) :   1.1592 B( 10-C , 13-F ) :   1.1594

FINAL SINGLE POINT ENERGY      -906.411033777485

DIPOLE MOMENT
-------------

Method             : SCF
Type of density    : Electron Density
Multiplicity       :   1
Irrep              :   0
Energy             :  -906.4384320153850467 Eh
Relativity type    :
Basis              : AO
                                X                 Y                 Z
Electronic contribution:      0.072246081      14.297278464      -1.288396837
Nuclear contribution   :     -0.016638366     -16.605639322       1.499963938
                        -----------------------------------------
Total Dipole Moment    :      0.055607715      -2.308360859       0.211567102
                        -----------------------------------------
Magnitude (a.u.)       :      2.318702808
Magnitude (Debye)      :      5.893674159

Rotational constants in cm-1:             0.028093             0.023973             0.015020
Rotational constants in MHz :           842.214615           718.686692           450.284338

                             ****ORCA TERMINATED NORMALLY****
TOTAL RUN TIME: 0 days 0 hours 5 minutes 13 seconds 409 msec
