                         Program Version 6.0.0  -   RELEASE  -
|  1> ! pbe def2-sv(p) def2/J RI DEFGRID1 loosescf d4 GCP(DFT/SV(P)) printgap
|  2> %output
|  3>     printlevel normal
|  4> end
|  5> * xyz 0 1
|  6> C -1.6686254083 -1.3907050737 0.6095682752
|  7> C -1.423887254 0.1103201085 0.4723169444
|  8> C -2.7192398752 0.7884358462 0.0180308126
|  9> C -0.3146393608 0.4699262769 -0.5274367588
| 10> C 1.1493251799 0.0957548536 -0.2051176692
| 11> C 2.0489482365 1.0127611761 -1.0467730578
| 12> C 1.4802755924 0.3164334307 1.2722514475
| 13> C 1.4673422419 -1.3508417192 -0.594983539
| 14> H -2.5805514954 -1.5675104913 1.1767281426
| 15> H -1.7811848229 -1.8502735153 -0.3698239976
| 16> H -0.8542224131 -1.8814513209 1.1343150005
| 17> H -1.1630910326 0.5137424483 1.4552630099
| 18> H -2.5885096012 1.865763445 -0.0547924047
| 19> H -3.0206846794 0.4129436563 -0.9576883969
| 20> H -3.522259769 0.5898446085 0.7241793371
| 21> H -0.5722999594 0.0357665448 -1.49698746
| 22> H -0.3483112087 1.5564541151 -0.6454966793
| 23> H 1.922037002 2.0527146855 -0.7538574106
| 24> H 1.8049011456 0.9213374262 -2.1029194509
| 25> H 3.0954355607 0.7473510739 -0.91391626
| 26> H 1.2158041521 1.3266573807 1.5765615052
| 27> H 2.5467987064 0.1789782878 1.4377270665
| 28> H 0.9481633428 -0.3887061155 1.9048557644
| 29> H 1.246017191 -1.5184110912 -1.6467872631
| 30> H 0.8954439853 -2.0610271439 -0.0079775245
| 31> H 2.5241429046 -1.554862281 -0.4338386563
| 32> *
| 33>
| 34>                          ****END OF INPUT****

CARTESIAN COORDINATES (ANGSTROEM)
---------------------------------
  C     -1.668625   -1.390705    0.609568
  C     -1.423887    0.110320    0.472317
  C     -2.719240    0.788436    0.018031
  C     -0.314639    0.469926   -0.527437
  C      1.149325    0.095755   -0.205118
  C      2.048948    1.012761   -1.046773
  C      1.480276    0.316433    1.272251
  C      1.467342   -1.350842   -0.594984
  H     -2.580551   -1.567510    1.176728
  H     -1.781185   -1.850274   -0.369824
  H     -0.854222   -1.881451    1.134315
  H     -1.163091    0.513742    1.455263
  H     -2.588510    1.865763   -0.054792
  H     -3.020685    0.412944   -0.957688
  H     -3.522260    0.589845    0.724179
  H     -0.572300    0.035767   -1.496987
  H     -0.348311    1.556454   -0.645497
  H      1.922037    2.052715   -0.753857
  H      1.804901    0.921337   -2.102919
  H      3.095436    0.747351   -0.913916
  H      1.215804    1.326657    1.576562
  H      2.546799    0.178978    1.437727
  H      0.948163   -0.388706    1.904856
  H      1.246017   -1.518411   -1.646787
  H      0.895444   -2.061027   -0.007978
  H      2.524143   -1.554862   -0.433839

 Total Charge           Charge          ....    0
 Multiplicity           Mult            ....    1
 Number of Electrons    NEL             ....   66
 Basis Dimension        Dim             ....  148

ORBITAL ENERGIES
----------------

  NO   OCC          E(Eh)            E(eV)
   0   2.0000      -9.901993      -269.4469
   1   2.0000      -9.890030      -269.1214
   2   2.0000      -9.875780      -268.7336
   3   2.0000      -9.868813      -268.5441
   4   2.0000      -9.868696      -268.5409
   5   2.0000      -9.868132      -268.5255
   6   2.0000      -9.867182      -268.4997
   7   2.0000      -9.866362      -268.4774
   8   2.0000      -0.747786       -20.3483
   9   2.0000      -0.706589       -19.2273
  10   2.0000      -0.614195       -16.7131
  11   2.0000      -0.609985       -16.5985
  12   2.0000      -0.602245       -16.3879
  13   2.0000      -0.599733       -16.3196
  14   2.0000      -0.502523       -13.6744
  15   2.0000      -0.466335       -12.6896
  16   2.0000      -0.421358       -11.4657
  17   2.0000      -0.404720       -11.0130
  18   2.0000      -0.400586       -10.9005
  19   2.0000      -0.385587       -10.4923
  20   2.0000      -0.367177        -9.9914
  21   2.0000      -0.353990        -9.6326
  22   2.0000      -0.344987        -9.3876
  23   2.0000      -0.339404        -9.2356
  24   2.0000      -0.332728        -9.0540
  25   2.0000      -0.317110        -8.6290
  26   2.0000      -0.314431        -8.5561
  27   2.0000      -0.305130        -8.3030
  28   2.0000      -0.288464        -7.8495
  29   2.0000      -0.285859        -7.7786
  30   2.0000      -0.271535        -7.3889
  31   2.0000      -0.266419        -7.2496
  32   2.0000      -0.257105        -6.9962
  33   0.0000       0.026961         0.7336
  34   0.0000       0.056589         1.5399
  35   0.0000       0.065606         1.7852
  36   0.0000       0.071845         1.9550
  37   0.0000       0.079625         2.1667

MULLIKEN ATOMIC CHARGES
-----------------------
   0 C :   -0.249784
   1 C :   -0.172112
   2 C :   -0.242200
   3 C :   -0.087684
   4 C :   -0.235845
   5 C :   -0.213795
   6 C :   -0.219267
   7 C :   -0.214715
   8 H :    0.093407
   9 H :    0.091290
  10 H :    0.116352
  11 H :    0.072186
  12 H :    0.096110
  13 H :    0.091395
  14 H :    0.096511
  15 H :    0.066550
  16 H :    0.067015
  17 H :    0.093269
  18 H :    0.092877
  19 H :    0.090889
  20 H :    0.094344
  21 H :    0.091798
  22 H :    0.104169
  23 H :    0.090130
  24 H :    0.097215
  25 H :    0.089894
Sum of atomic charges:   -0.0000000

LOEWDIN ATOMIC CHARGES
----------------------
   0 C :   -0.331064
   1 C :   -0.157656
   2 C :   -0.326974
   3 C :   -0.199111
   4 C :   -0.105194
   5 C :   -0.315597
   6 C :   -0.317431
   7 C :   -0.318385
   8 H :    0.116757
   9 H :    0.116791
  10 H :    0.114765
  11 H :    0.114770
  12 H :    0.115017
  13 H :    0.115469
  14 H :    0.115213
  15 H :    0.112698
  16 H :    0.113725
  17 H :    0.113551
  18 H :    0.115264
  19 H :    0.113498
  20 H :    0.115998
  21 H :    0.116778
  22 H :    0.115868
  23 H :    0.115045
  24 H :    0.115290
  25 H :    0.114914

  Mayer bond orders larger than 0.100000
B(  0-C ,  1-C ) :   1.1171 B(  0-C ,  8-H ) :   0.9458 B(  0-C ,  9-H ) :   0.9461
B(  0-C , 10-H ) :   0.9343 B(  1-C ,  2-C ) :   1.1102 B(  1-C ,  3-C ) :   1.1020
B(  1-C , 11-H ) :   0.8858 B(  2-C , 12-H ) :   0.9491 B(  2-C , 13-H ) :   0.9513
B(  2-C , 14-H ) :   0.9492 B(  3-C ,  4-C ) :   1.0331 B(  3-C , 15-H ) :   0.9082
B(  3-C , 16-H ) :   0.9105 B(  4-C ,  5-C ) :   1.0752 B(  4-C ,  6-C ) :   1.0867
B(  4-C ,  7-C ) :   1.0795 B(  5-C , 17-H ) :   0.9446 B(  5-C , 18-H ) :   0.9490
B(  5-C , 19-H ) :   0.9467 B(  6-C , 20-H ) :   0.9451 B(  6-C , 21-H ) :   0.9450
B(  6-C , 22-H ) :   0.9360 B(  7-C , 23-H ) :   0.9458 B(  7-C , 24-H ) :   0.9379
B(  7-C , 25-H ) :   0.9461

Dispersion correction           -0.023380712
FINAL SINGLE POINT ENERGY      -314.872214452531

DIPOLE MOMENT
-------------

Method             : SCF
Type of density    : Electron Density
Multiplicity       :   1
Irrep              :   0
Energy             :  -314.9589497265239970 Eh
Relativity type    :
Basis              : AO
                                X                 Y                 Z
Electronic contribution:      0.209965209       0.593317119       0.025674608
Nuclear contribution   :     -0.218001549      -0.582305937       0.023964703
                        -----------------------------------------
Total Dipole Moment    :     -0.008036339       0.011011183       0.049639310
                        -----------------------------------------
Magnitude (a.u.)       :      0.051477083
Magnitude (Debye)      :      0.130844345

Rotational constants in cm-1:             0.099831             0.040925             0.037110
Rotational constants in MHz :          2992.852607          1226.893763          1112.538849

                             ****ORCA TERMINATED NORMALLY****
TOTAL RUN TIME: 0 days 0 hours 0 minutes 11 seconds 880 msec
