                         Program Version 6.0.0  -   RELEASE  -
|  1> ! pbe def2-sv(p) def2/J RI DEFGRID1 loosescf d4 GCP(DFT/SV(P)) printgap
|  2> %output
|  3>     printlevel normal
|  4> end
|  5> * xyz 0 1
|  6> C -2.3453645256 -0.9186929502 0.5432134037
|  7> C -0.8994528005 -0.4115484627 0.6344191634
|  8> H -0.560028322 -0.4457275203 1.6785696696
|  9> C -0.7543120931 1.0294970021 0.1041423784
| 10> H -1.4340671161 1.1468783694 -0.7536939321
| 11> C 0.6918107492 1.2702679118 -0.3820660636
| 12> H 0.9459383839 2.3079968331 -0.1199195054
| 13> C 1.6669888167 0.3195454455 0.3314415442
| 14> H 2.6743329157 0.4763727494 -0.0818141707
| 15> C 1.2787669833 -1.1386491456 -0.0002452975
| 16> H 1.6299333956 -1.781665369 0.8232877539
| 17> O -0.1155301158 -1.2932021105 -0.1578534983
| 18> O 1.8928866834 -1.5944806092 -1.1482718751
| 19> O 1.6664382003 0.468885457 1.7253168599
| 20> O 0.8555167671 1.041873407 -1.7586757514
| 21> O -1.0230607902 1.9968573739 1.089348692
| 22> O -2.8484541766 -0.8596843911 -0.7662208606
| 23> H -2.9987305997 -0.2926579357 1.1527176916
| 24> H -2.375067808 -1.9450920458 0.9265957178
| 25> H 1.609998492 -1.0332196772 -1.8924336651
| 26> H 1.921843226 1.3732900982 1.9603848348
| 27> H 0.3496065653 1.6926415641 -2.2664140033
| 28> H -1.9485374887 1.9408558958 1.3628077582
| 29> H -2.2973694567 -1.4263999325 -1.3249709525
| 30> *
| 31>
| 32>                          ****END OF INPUT****

CARTESIAN COORDINATES (ANGSTROEM)
---------------------------------
  C     -2.345365   -0.918693    0.543213
  C     -0.899453   -0.411548    0.634419
  H     -0.560028   -0.445728    1.678570
  C     -0.754312    1.029497    0.104142
  H     -1.434067    1.146878   -0.753694
  C      0.691811    1.270268   -0.382066
  H      0.945938    2.307997   -0.119920
  C      1.666989    0.319545    0.331442
  H      2.674333    0.476373   -0.081814
  C      1.278767   -1.138649   -0.000245
  H      1.629933   -1.781665    0.823288
  O     -0.115530   -1.293202   -0.157853
  O      1.892887   -1.594481   -1.148272
  O      1.666438    0.468885    1.725317
  O      0.855517    1.041873   -1.758676
  O     -1.023061    1.996857    1.089349
  O     -2.848454   -0.859684   -0.766221
  H     -2.998731   -0.292658    1.152718
  H     -2.375068   -1.945092    0.926596
  H      1.609998   -1.033220   -1.892434
  H      1.921843    1.373290    1.960385
  H      0.349607    1.692642   -2.266414
  H     -1.948537    1.940856    1.362808
  H     -2.297369   -1.426400   -1.324971

 Total Charge           Charge          ....    0
 Multiplicity           Mult            ....    1
 Number of Electrons    NEL             ....   96
 Basis Dimension        Dim             ....  192

ORBITAL ENERGIES
----------------

  NO   OCC          E(Eh)            E(eV)
   0   2.0000     -18.773250      -510.8461
   1   2.0000     -18.761094      -510.5153
   2   2.0000     -18.760270      -510.4929
   3   2.0000     -18.758823      -510.4535
   4   2.0000     -18.749461      -510.1988
   5   2.0000     -18.742745      -510.0160
   6   2.0000      -9.977807      -271.5099
   7   2.0000      -9.949530      -270.7405
   8   2.0000      -9.941418      -270.5197
   9   2.0000      -9.940208      -270.4868
  10   2.0000      -9.935416      -270.3564
  11   2.0000      -9.935338      -270.3543
  12   2.0000      -0.976386       -26.5688
  13   2.0000      -0.947563       -25.7845
  14   2.0000      -0.935061       -25.4443
  15   2.0000      -0.934134       -25.4191
  16   2.0000      -0.926261       -25.2048
  17   2.0000      -0.900575       -24.5059
  18   2.0000      -0.699056       -19.0223
  19   2.0000      -0.684600       -18.6289
  20   2.0000      -0.624974       -17.0064
  21   2.0000      -0.582992       -15.8640
  22   2.0000      -0.568605       -15.4725
  23   2.0000      -0.517650       -14.0860
  24   2.0000      -0.504590       -13.7306
  25   2.0000      -0.485085       -13.1998
  26   2.0000      -0.469815       -12.7843
  27   2.0000      -0.460657       -12.5351
  28   2.0000      -0.450021       -12.2457
  29   2.0000      -0.439955       -11.9718
  30   2.0000      -0.422016       -11.4836
  31   2.0000      -0.388788       -10.5795
  32   2.0000      -0.385381       -10.4868
  33   2.0000      -0.371961       -10.1216
  34   2.0000      -0.360514        -9.8101
  35   2.0000      -0.358730        -9.7615
  36   2.0000      -0.326807        -8.8929
  37   2.0000      -0.321768        -8.7557
  38   2.0000      -0.305817        -8.3217
  39   2.0000      -0.291265        -7.9257
  40   2.0000      -0.277394        -7.5483
  41   2.0000      -0.268329        -7.3016
  42   2.0000      -0.250917        -6.8278
  43   2.0000      -0.244865        -6.6631
  44   2.0000      -0.229199        -6.2368
  45   2.0000      -0.225290        -6.1305
  46   2.0000      -0.218373        -5.9422
  47   2.0000      -0.196657        -5.3513
  48   0.0000       0.007120         0.1937
  49   0.0000       0.015351         0.4177
  50   0.0000       0.025145         0.6842
  51   0.0000       0.045720         1.2441
  52   0.0000       0.060539         1.6474

MULLIKEN ATOMIC CHARGES
-----------------------
   0 C :    0.086698
   1 C :   -0.037825
   2 H :    0.078963
   3 C :    0.091998
   4 H :    0.039619
   5 C :    0.050046
   6 H :    0.061804
   7 C :   -0.028727
   8 H :    0.080709
   9 C :    0.218956
  10 H :    0.071832
  11 O :   -0.319034
  12 O :   -0.394297
  13 O :   -0.401019
  14 O :   -0.425087
  15 O :   -0.418064
  16 O :   -0.436996
  17 H :    0.067116
  18 H :    0.086704
  19 H :    0.300767
  20 H :    0.306433
  21 H :    0.310814
  22 H :    0.303377
  23 H :    0.305214
Sum of atomic charges:   -0.0000000

LOEWDIN ATOMIC CHARGES
----------------------
   0 C :   -0.125629
   1 C :   -0.087892
   2 H :    0.112577
   3 C :   -0.076878
   4 H :    0.097358
   5 C :   -0.070987
   6 H :    0.101782
   7 C :   -0.092182
   8 H :    0.109682
   9 C :    0.012151
  10 H :    0.102894
  11 O :   -0.161219
  12 O :   -0.295331
  13 O :   -0.304895
  14 O :   -0.312350
  15 O :   -0.319659
  16 O :   -0.333075
  17 H :    0.106772
  18 H :    0.107109
  19 H :    0.275869
  20 H :    0.289518
  21 H :    0.291916
  22 H :    0.286369
  23 H :    0.286099

  Mayer bond orders larger than 0.100000
B(  0-C ,  1-C ) :   1.0319 B(  0-C , 16-O ) :   1.0671 B(  0-C , 17-H ) :   0.9214
B(  0-C , 18-H ) :   0.9127 B(  1-C ,  2-H ) :   0.8600 B(  1-C ,  3-C ) :   1.0176
B(  1-C , 11-O ) :   1.0131 B(  3-C ,  4-H ) :   0.8723 B(  3-C ,  5-C ) :   0.9685
B(  3-C , 15-O ) :   1.0684 B(  5-C ,  6-H ) :   0.8897 B(  5-C ,  7-C ) :   1.0240
B(  5-C , 14-O ) :   1.0339 B(  7-C ,  8-H ) :   0.9006 B(  7-C ,  9-C ) :   0.9548
B(  7-C , 13-O ) :   1.0699 B(  9-C , 10-H ) :   0.9057 B(  9-C , 11-O ) :   1.0115
B(  9-C , 12-O ) :   1.1583 B( 12-O , 19-H ) :   0.8232 B( 13-O , 20-H ) :   0.8416
B( 14-O , 21-H ) :   0.8403 B( 15-O , 22-H ) :   0.8446 B( 16-O , 23-H ) :   0.8406

Dispersion correction           -0.025053396
FINAL SINGLE POINT ENERGY      -685.692707688482

DIPOLE MOMENT
-------------

Method             : SCF
Type of density    : Electron Density
Multiplicity       :   1
Irrep              :   0
Energy             :  -685.8232291390287401 Eh
Relativity type    :
Basis              : AO
                                X                 Y                 Z
Electronic contribution:      1.989377809      -0.733179211      -1.385441315
Nuclear contribution   :     -2.322339318       1.885240808       1.359472370
                        -----------------------------------------
Total Dipole Moment    :     -0.332961509       1.152061597      -0.025968945
                        -----------------------------------------
Magnitude (a.u.)       :      1.199493091
Magnitude (Debye)      :      3.048869141

Rotational constants in cm-1:             0.039186             0.028041             0.023309
Rotational constants in MHz :          1174.758983           840.637421           698.801110

                             ****ORCA TERMINATED NORMALLY****
TOTAL RUN TIME: 0 days 0 hours 0 minutes 12 seconds 49 msec
