                         Program Version 6.0.0  -   RELEASE  -
|  1> ! wb97x-v def2-tzvp def2/J RIJCOSX DEFGRID2 scfconv7 GCP(DFT/TZ) printgap
|  2> %output
|  3>     printlevel normal
|  4> end
|  5> * xyz 0 1
|  6> C -3.429321035257091 0.5819642507822611 0.06900016609353368
|  7> C -1.9331778203138124 0.4788656343549793 0.07618987383744727
|  8> C -1.1317596182456062 1.5006725259866214 -0.2511315907464395
|  9> C 0.3656805030419427 1.4373912619690548 -0.2862497576151924
| 10> C 0.8868250161440439 -0.00860701728341691 -0.2871525086779776
| 11> H 0.6461023607843682 -0.44219124752123135 -1.2677233049030534
| 12> C 0.13023127678268534 -0.7954985301550765 0.7887332114537897
| 13> C -1.3616655712267465 -0.8596688379229341 0.47765473326015756
| 14> H -1.8968908414436985 -1.2217801657329972 1.3639632219387765
| 15> O -1.6571304692285074 -1.8599082320325924 -0.5382954083082929
| 16> C 2.388738585315149 -0.06167212516066833 -0.12451541875527775
| 17> C 3.180085822028659 -0.31630301197410154 -1.1720024623592449
| 18> C 2.949060592251672 0.19294131908177226 1.24505138779688
| 19> H -3.871934608577965 -0.17437497825629428 -0.5897637893640749
| 20> H -3.761317226509092 1.567469898044447 -0.2683125487328747
| 21> H -3.8363157372582637 0.40169256088214045 1.0719280725128206
| 22> H -1.5835569706032682 2.4570494587227465 -0.5145398529097274
| 23> H 0.7347835583448609 1.9634099457540894 -1.1753800273806492
| 24> H 0.7726835566817088 1.984664468312187 0.5772255604995458
| 25> H 0.5195827693885908 -1.8155305312479706 0.8818513242820325
| 26> H 0.2578573242412552 -0.30310262651945985 1.7614900176335448
| 27> H -1.3538409585351812 -1.5015740298941187 -1.3835554999296418
| 28> H 4.262790764579198 -0.3317688715277389 -1.0744322493268568
| 29> H 2.764018817309664 -0.5128396471704955 -2.1573128297723887
| 30> H 2.6635292453354804 -0.6088347970389351 1.9363911349431526
| 31> H 4.040156199222506 0.24901834641734785 1.2197082645491624
| 32> H 2.5619493240095714 1.1253313219510428 1.6721054320292856
| 33> *
| 34>
| 35>                          ****END OF INPUT****

CARTESIAN COORDINATES (ANGSTROEM)
---------------------------------
  C     -3.429321    0.581964    0.069000
  C     -1.933178    0.478866    0.076190
  C     -1.131760    1.500673   -0.251132
  C      0.365681    1.437391   -0.286250
  C      0.886825   -0.008607   -0.287153
  H      0.646102   -0.442191   -1.267723
  C      0.130231   -0.795499    0.788733
  C     -1.361666   -0.859669    0.477655
  H     -1.896891   -1.221780    1.363963
  O     -1.657130   -1.859908   -0.538295
  C      2.388739   -0.061672   -0.124515
  C      3.180086   -0.316303   -1.172002
  C      2.949061    0.192941    1.245051
  H     -3.871935   -0.174375   -0.589764
  H     -3.761317    1.567470   -0.268313
  H     -3.836316    0.401693    1.071928
  H     -1.583557    2.457049   -0.514540
  H      0.734784    1.963410   -1.175380
  H      0.772684    1.984664    0.577226
  H      0.519583   -1.815531    0.881851
  H      0.257857   -0.303103    1.761490
  H     -1.353841   -1.501574   -1.383555
  H      4.262791   -0.331769   -1.074432
  H      2.764019   -0.512840   -2.157313
  H      2.663529   -0.608835    1.936391
  H      4.040156    0.249018    1.219708
  H      2.561949    1.125331    1.672105

 Total Charge           Charge          ....    0
 Multiplicity           Mult            ....    1
 Number of Electrons    NEL             ....   84
 Basis Dimension        Dim             ....  437

ORBITAL ENERGIES
----------------

  NO   OCC          E(Eh)            E(eV)
   0   2.0000     -21.667411      -589.6002
   1   2.0000     -12.098415      -329.2146
   2   2.0000     -12.059178      -328.1469
   3   2.0000     -12.056884      -328.0845
   4   2.0000     -12.052459      -327.9641
   5   2.0000     -12.051083      -327.9266
   6   2.0000     -12.047025      -327.8162
   7   2.0000     -12.043510      -327.7206
   8   2.0000     -12.043267      -327.7140
   9   2.0000     -12.038560      -327.5859
  10   2.0000     -12.033175      -327.4393
  11   2.0000      -1.663557       -45.2677
  12   2.0000      -1.367787       -37.2194
  13   2.0000      -1.328821       -36.1591
  14   2.0000      -1.271320       -34.5944
  15   2.0000      -1.258750       -34.2523
  16   2.0000      -1.191039       -32.4098
  17   2.0000      -1.187172       -32.3046
  18   2.0000      -1.138401       -30.9775
  19   2.0000      -1.098348       -29.8876
  20   2.0000      -1.047525       -28.5046
  21   2.0000      -0.995909       -27.1000
  22   2.0000      -0.971461       -26.4348
  23   2.0000      -0.937857       -25.5204
  24   2.0000      -0.931834       -25.3565
  25   2.0000      -0.925070       -25.1724
  26   2.0000      -0.903758       -24.5925
  27   2.0000      -0.885392       -24.0927
  28   2.0000      -0.879849       -23.9419
  29   2.0000      -0.859205       -23.3802
  30   2.0000      -0.839492       -22.8437
  31   2.0000      -0.836984       -22.7755
  32   2.0000      -0.831956       -22.6387
  33   2.0000      -0.821326       -22.3494
  34   2.0000      -0.816761       -22.2252
  35   2.0000      -0.808603       -22.0032
  36   2.0000      -0.803277       -21.8583
  37   2.0000      -0.780455       -21.2373
  38   2.0000      -0.772382       -21.0176
  39   2.0000      -0.762534       -20.7496
  40   2.0000      -0.650206       -17.6930
  41   2.0000      -0.643860       -17.5203
  42   0.0000      -0.230103        -6.2614
  43   0.0000      -0.203121        -5.5272
  44   0.0000      -0.117474        -3.1966
  45   0.0000      -0.067736        -1.8432
  46   0.0000      -0.052634        -1.4323

MULLIKEN ATOMIC CHARGES
-----------------------
   0 C :   -0.361518
   1 C :   -0.079393
   2 C :   -0.186249
   3 C :   -0.131110
   4 C :   -0.010716
   5 H :    0.053132
   6 C :   -0.203169
   7 C :    0.154891
   8 H :    0.086057
   9 O :   -0.442236
  10 C :    0.022109
  11 C :   -0.289918
  12 C :   -0.383876
  13 H :    0.130013
  14 H :    0.110887
  15 H :    0.113375
  16 H :    0.109642
  17 H :    0.111143
  18 H :    0.093597
  19 H :    0.115363
  20 H :    0.102913
  21 H :    0.296450
  22 H :    0.108783
  23 H :    0.110072
  24 H :    0.133636
  25 H :    0.117779
  26 H :    0.118343
Sum of atomic charges:   -0.0000000

LOEWDIN ATOMIC CHARGES
----------------------
   0 C :   -0.256966
   1 C :   -0.191891
   2 C :   -0.134720
   3 C :   -0.211203
   4 C :   -0.210924
   5 H :    0.154154
   6 C :   -0.202648
   7 C :   -0.282344
   8 H :    0.148295
   9 O :   -0.034053
  10 C :   -0.203757
  11 C :   -0.192525
  12 C :   -0.253678
  13 H :    0.128649
  14 H :    0.122642
  15 H :    0.124868
  16 H :    0.140169
  17 H :    0.143817
  18 H :    0.143522
  19 H :    0.143477
  20 H :    0.145266
  21 H :    0.164469
  22 H :    0.118739
  23 H :    0.119676
  24 H :    0.128406
  25 H :    0.125646
  26 H :    0.122914

  Mayer bond orders larger than 0.100000
B(  0-C ,  1-C ) :   0.9739 B(  0-C , 13-H ) :   0.9707 B(  0-C , 14-H ) :   0.9910
B(  0-C , 15-H ) :   0.9732 B(  1-C ,  2-C ) :   1.8781 B(  1-C ,  7-C ) :   1.0218
B(  2-C ,  3-C ) :   0.9767 B(  2-C , 16-H ) :   0.9616 B(  3-C ,  4-C ) :   1.0065
B(  3-C , 17-H ) :   0.9726 B(  3-C , 18-H ) :   0.9433 B(  4-C ,  5-H ) :   0.9775
B(  4-C ,  6-C ) :   0.9345 B(  4-C , 10-C ) :   0.9041 B(  6-C ,  7-C ) :   0.9963
B(  6-C , 19-H ) :   0.9723 B(  6-C , 20-H ) :   0.9481 B(  7-C ,  8-H ) :   0.9606
B(  7-C ,  9-O ) :   0.9852 B(  9-O , 21-H ) :   0.8997 B( 10-C , 11-C ) :   1.9340
B( 10-C , 12-C ) :   0.9601 B( 11-C , 22-H ) :   0.9651 B( 11-C , 23-H ) :   0.9702
B( 12-C , 24-H ) :   0.9714 B( 12-C , 25-H ) :   0.9816 B( 12-C , 26-H ) :   0.9756

FINAL SINGLE POINT ENERGY      -465.919963989349

DIPOLE MOMENT
-------------

Method             : SCF
Type of density    : Electron Density
Multiplicity       :   1
Irrep              :   0
Energy             :  -465.9377316223491903 Eh
Relativity type    :
Basis              : AO
                                X                 Y                 Z
Electronic contribution:     -2.402579757      -2.099390984      -1.811050738
Nuclear contribution   :      2.616938304       2.739631745       1.929505460
                        -----------------------------------------
Total Dipole Moment    :      0.214358548       0.640240761       0.118454722
                        -----------------------------------------
Magnitude (a.u.)       :      0.685484748
Magnitude (Debye)      :      1.742363762

Rotational constants in cm-1:             0.070783             0.022075             0.020018
Rotational constants in MHz :          2122.008169           661.800018           600.136167

                             ****ORCA TERMINATED NORMALLY****
TOTAL RUN TIME: 0 days 0 hours 5 minutes 27 seconds 756 msec
