                         Program Version 6.0.0  -   RELEASE  -
|  1> ! wb97x-v def2-tzvp def2/J RIJCOSX DEFGRID2 scfconv7 GCP(DFT/TZ) printgap
|  2> %output
|  3>     printlevel normal
|  4> end
|  5> %cpcm
|  6>     smd true
|  7>     smdsolvent "water"
|  8> end
|  9> * xyz 0 1
| 10> C -3.429321035257091 0.5819642507822611 0.06900016609353368
| 11> C -1.9331778203138124 0.4788656343549793 0.07618987383744727
| 12> C -1.1317596182456062 1.5006725259866214 -0.2511315907464395
| 13> C 0.3656805030419427 1.4373912619690548 -0.2862497576151924
| 14> C 0.8868250161440439 -0.00860701728341691 -0.2871525086779776
| 15> H 0.6461023607843682 -0.44219124752123135 -1.2677233049030534
| 16> C 0.13023127678268534 -0.7954985301550765 0.7887332114537897
| 17> C -1.3616655712267465 -0.8596688379229341 0.47765473326015756
| 18> H -1.8968908414436985 -1.2217801657329972 1.3639632219387765
| 19> O -1.6571304692285074 -1.8599082320325924 -0.5382954083082929
| 20> C 2.388738585315149 -0.06167212516066833 -0.12451541875527775
| 21> C 3.180085822028659 -0.31630301197410154 -1.1720024623592449
| 22> C 2.949060592251672 0.19294131908177226 1.24505138779688
| 23> H -3.871934608577965 -0.17437497825629428 -0.5897637893640749
| 24> H -3.761317226509092 1.567469898044447 -0.2683125487328747
| 25> H -3.8363157372582637 0.40169256088214045 1.0719280725128206
| 26> H -1.5835569706032682 2.4570494587227465 -0.5145398529097274
| 27> H 0.7347835583448609 1.9634099457540894 -1.1753800273806492
| 28> H 0.7726835566817088 1.984664468312187 0.5772255604995458
| 29> H 0.5195827693885908 -1.8155305312479706 0.8818513242820325
| 30> H 0.2578573242412552 -0.30310262651945985 1.7614900176335448
| 31> H -1.3538409585351812 -1.5015740298941187 -1.3835554999296418
| 32> H 4.262790764579198 -0.3317688715277389 -1.0744322493268568
| 33> H 2.764018817309664 -0.5128396471704955 -2.1573128297723887
| 34> H 2.6635292453354804 -0.6088347970389351 1.9363911349431526
| 35> H 4.040156199222506 0.24901834641734785 1.2197082645491624
| 36> H 2.5619493240095714 1.1253313219510428 1.6721054320292856
| 37> *
| 38>
| 39>                          ****END OF INPUT****

CARTESIAN COORDINATES (ANGSTROEM)
---------------------------------
  C     -3.429321    0.581964    0.069000
  C     -1.933178    0.478866    0.076190
  C     -1.131760    1.500673   -0.251132
  C      0.365681    1.437391   -0.286250
  C      0.886825   -0.008607   -0.287153
  H      0.646102   -0.442191   -1.267723
  C      0.130231   -0.795499    0.788733
  C     -1.361666   -0.859669    0.477655
  H     -1.896891   -1.221780    1.363963
  O     -1.657130   -1.859908   -0.538295
  C      2.388739   -0.061672   -0.124515
  C      3.180086   -0.316303   -1.172002
  C      2.949061    0.192941    1.245051
  H     -3.871935   -0.174375   -0.589764
  H     -3.761317    1.567470   -0.268313
  H     -3.836316    0.401693    1.071928
  H     -1.583557    2.457049   -0.514540
  H      0.734784    1.963410   -1.175380
  H      0.772684    1.984664    0.577226
  H      0.519583   -1.815531    0.881851
  H      0.257857   -0.303103    1.761490
  H     -1.353841   -1.501574   -1.383555
  H      4.262791   -0.331769   -1.074432
  H      2.764019   -0.512840   -2.157313
  H      2.663529   -0.608835    1.936391
  H      4.040156    0.249018    1.219708
  H      2.561949    1.125331    1.672105

 Total Charge           Charge          ....    0
 Multiplicity           Mult            ....    1
 Number of Electrons    NEL             ....   84
 Basis Dimension        Dim             ....  437

ORBITAL ENERGIES
----------------

  NO   OCC          E(Eh)            E(eV)
   0   2.0000     -21.671460      -589.7104
   1   2.0000     -12.093122      -329.0706
   2   2.0000     -12.053775      -327.9999
   3   2.0000     -12.045423      -327.7726
   4   2.0000     -12.045009      -327.7614
   5   2.0000     -12.039540      -327.6125
   6   2.0000     -12.038166      -327.5751
   7   2.0000     -12.033773      -327.4556
   8   2.0000     -12.030560      -327.3682
   9   2.0000     -12.030345      -327.3623
  10   2.0000     -12.025363      -327.2268
  11   2.0000      -1.668152       -45.3927
  12   2.0000      -1.359297       -36.9883
  13   2.0000      -1.321792       -35.9678
  14   2.0000      -1.263219       -34.3739
  15   2.0000      -1.250964       -34.0405
  16   2.0000      -1.181470       -32.1494
  17   2.0000      -1.179843       -32.1051
  18   2.0000      -1.132537       -30.8179
  19   2.0000      -1.089907       -29.6579
  20   2.0000      -1.046543       -28.4779
  21   2.0000      -0.987261       -26.8647
  22   2.0000      -0.974129       -26.5074
  23   2.0000      -0.934466       -25.4281
  24   2.0000      -0.926919       -25.2227
  25   2.0000      -0.918019       -24.9806
  26   2.0000      -0.894975       -24.3535
  27   2.0000      -0.880631       -23.9632
  28   2.0000      -0.873705       -23.7747
  29   2.0000      -0.849940       -23.1280
  30   2.0000      -0.829860       -22.5816
  31   2.0000      -0.828506       -22.5448
  32   2.0000      -0.821972       -22.3670
  33   2.0000      -0.813194       -22.1281
  34   2.0000      -0.807557       -21.9747
  35   2.0000      -0.797942       -21.7131
  36   2.0000      -0.795509       -21.6469
  37   2.0000      -0.771659       -20.9979
  38   2.0000      -0.761802       -20.7297
  39   2.0000      -0.752763       -20.4837
  40   2.0000      -0.643870       -17.5206
  41   2.0000      -0.638177       -17.3657
  42   0.0000      -0.223747        -6.0885
  43   0.0000      -0.198203        -5.3934
  44   0.0000      -0.112464        -3.0603
  45   0.0000      -0.050730        -1.3804
  46   0.0000      -0.043853        -1.1933

MULLIKEN ATOMIC CHARGES
-----------------------
   0 C :   -0.404613
   1 C :   -0.087319
   2 C :   -0.244279
   3 C :   -0.153146
   4 C :    0.022272
   5 H :    0.093407
   6 C :   -0.257522
   7 C :    0.180448
   8 H :    0.117790
   9 O :   -0.555440
  10 C :   -0.023120
  11 C :   -0.389012
  12 C :   -0.423400
  13 H :    0.131207
  14 H :    0.135703
  15 H :    0.135897
  16 H :    0.146203
  17 H :    0.123284
  18 H :    0.120713
  19 H :    0.121588
  20 H :    0.126568
  21 H :    0.354475
  22 H :    0.147912
  23 H :    0.148842
  24 H :    0.149874
  25 H :    0.138327
  26 H :    0.143343
Sum of atomic charges:    0.0000000

LOEWDIN ATOMIC CHARGES
----------------------
   0 C :   -0.264317
   1 C :   -0.197200
   2 C :   -0.137095
   3 C :   -0.210885
   4 C :   -0.209124
   5 H :    0.163008
   6 C :   -0.202498
   7 C :   -0.282002
   8 H :    0.153645
   9 O :   -0.076819
  10 C :   -0.208731
  11 C :   -0.218421
  12 C :   -0.257283
  13 H :    0.127000
  14 H :    0.127777
  15 H :    0.129267
  16 H :    0.147225
  17 H :    0.146486
  18 H :    0.150049
  19 H :    0.142552
  20 H :    0.152067
  21 H :    0.184986
  22 H :    0.123667
  23 H :    0.125277
  24 H :    0.132886
  25 H :    0.128477
  26 H :    0.130003

  Mayer bond orders larger than 0.100000
B(  0-C ,  1-C ) :   0.9593 B(  0-C , 13-H ) :   0.9686 B(  0-C , 14-H ) :   0.9879
B(  0-C , 15-H ) :   0.9717 B(  1-C ,  2-C ) :   1.8868 B(  1-C ,  7-C ) :   1.0120
B(  2-C ,  3-C ) :   0.9807 B(  2-C , 16-H ) :   0.9628 B(  3-C ,  4-C ) :   1.0030
B(  3-C , 17-H ) :   0.9653 B(  3-C , 18-H ) :   0.9422 B(  4-C ,  5-H ) :   0.9827
B(  4-C ,  6-C ) :   0.9257 B(  4-C , 10-C ) :   0.8776 B(  6-C ,  7-C ) :   1.0049
B(  6-C , 19-H ) :   0.9747 B(  6-C , 20-H ) :   0.9511 B(  7-C ,  8-H ) :   0.9584
B(  7-C ,  9-O ) :   0.9386 B(  9-O , 21-H ) :   0.8688 B( 10-C , 11-C ) :   1.9188
B( 10-C , 12-C ) :   0.9678 B( 11-C , 22-H ) :   0.9682 B( 11-C , 23-H ) :   0.9685
B( 12-C , 24-H ) :   0.9651 B( 12-C , 25-H ) :   0.9789 B( 12-C , 26-H ) :   0.9697

FINAL SINGLE POINT ENERGY      -465.927548195995

DIPOLE MOMENT
-------------

Method             : SCF
Type of density    : Electron Density
Multiplicity       :   1
Irrep              :   0
Energy             :  -465.9453158289953194 Eh
Relativity type    :
Basis              : AO
                                X                 Y                 Z
Electronic contribution:     -2.349366115      -1.798206250      -1.736704637
Nuclear contribution   :      2.616938304       2.739631745       1.929505460
                        -----------------------------------------
Total Dipole Moment    :      0.267572190       0.941425494       0.192800823
                        -----------------------------------------
Magnitude (a.u.)       :      0.997521426
Magnitude (Debye)      :      2.535497966

Rotational constants in cm-1:             0.070783             0.022075             0.020018
Rotational constants in MHz :          2122.008169           661.800018           600.136167

                             ****ORCA TERMINATED NORMALLY****
TOTAL RUN TIME: 0 days 0 hours 5 minutes 37 seconds 42 msec
