                         Program Version 6.0.0  -   RELEASE  -
|  1> ! r2scan-3c def2/J RI DEFGRID2 scfconv6 printgap
|  2> %output
|  3>     printlevel normal
|  4> end
|  5> * xyz 0 1
|  6> C 1.952723473 5.44997e-05 -0.7616463463
|  7> C 1.112449113 -2.21648e-05 0.5144299206
|  8> C 0.2382515122 1.2538141017 0.6292497202
|  9> C -0.9171699258 1.2520593511 -0.3682600902
| 10> C -1.7711094755 8.31616e-05 -0.194852093
| 11> C -0.9173253641 -1.2520224362 -0.3681523197
| 12> C 0.2383215185 -1.2539293496 0.6291216154
| 13> H 2.5887083043 0.8820345547 -0.7916141169
| 14> H 2.5888962318 -0.8818919966 -0.7914101954
| 15> H 1.3297946723 -0.0002060495 -1.6508267732
| 16> H 1.8099238472 -2.98564e-05 1.3616418054
| 17> H -0.1735244491 1.300676208 1.6406708957
| 18> H 0.8540606331 2.1434389911 0.480424112
| 19> H -1.5295227857 2.1433904775 -0.2149202596
| 20> H -0.5294720837 1.2905510199 -1.3874956193
| 21> H -2.2129451104 0.0001545414 0.8046837553
| 22> H -2.586238499 9.38549e-05 -0.9216187497
| 23> H -1.529800969 -2.1432252326 -0.2145503167
| 24> H -0.5298274469 -1.2907717501 -1.3874490589
| 25> H -0.1731962391 -1.3011902357 1.6406335995
| 26> H 0.8541442258 -2.1434673984 0.4797883804
| 27> *
| 28>
| 29>                          ****END OF INPUT****

CARTESIAN COORDINATES (ANGSTROEM)
---------------------------------
  C      1.952723    0.000054   -0.761646
  C      1.112449   -0.000022    0.514430
  C      0.238252    1.253814    0.629250
  C     -0.917170    1.252059   -0.368260
  C     -1.771109    0.000083   -0.194852
  C     -0.917325   -1.252022   -0.368152
  C      0.238322   -1.253929    0.629122
  H      2.588708    0.882035   -0.791614
  H      2.588896   -0.881892   -0.791410
  H      1.329795   -0.000206   -1.650827
  H      1.809924   -0.000030    1.361642
  H     -0.173524    1.300676    1.640671
  H      0.854061    2.143439    0.480424
  H     -1.529523    2.143390   -0.214920
  H     -0.529472    1.290551   -1.387496
  H     -2.212945    0.000155    0.804684
  H     -2.586238    0.000094   -0.921619
  H     -1.529801   -2.143225   -0.214550
  H     -0.529827   -1.290772   -1.387449
  H     -0.173196   -1.301190    1.640634
  H      0.854144   -2.143467    0.479788

 Total Charge           Charge          ....    0
 Multiplicity           Mult            ....    1
 Number of Electrons    NEL             ....   56
 Basis Dimension        Dim             ....  203

ORBITAL ENERGIES
----------------

  NO   OCC          E(Eh)            E(eV)
   0   2.0000     -10.027009      -272.8488
   1   2.0000     -10.018389      -272.6142
   2   2.0000     -10.018267      -272.6109
   3   2.0000     -10.018192      -272.6089
   4   2.0000     -10.017473      -272.5893
   5   2.0000     -10.017464      -272.5891
   6   2.0000     -10.011653      -272.4309
   7   2.0000      -0.799692       -21.7607
   8   2.0000      -0.723975       -19.7003
   9   2.0000      -0.703553       -19.1446
  10   2.0000      -0.641581       -17.4583
  11   2.0000      -0.569756       -15.5038
  12   2.0000      -0.557993       -15.1838
  13   2.0000      -0.494187       -13.4475
  14   2.0000      -0.450233       -12.2515
  15   2.0000      -0.414765       -11.2863
  16   2.0000      -0.412313       -11.2196
  17   2.0000      -0.392984       -10.6936
  18   2.0000      -0.368431       -10.0255
  19   2.0000      -0.366189        -9.9645
  20   2.0000      -0.341102        -9.2819
  21   2.0000      -0.324926        -8.8417
  22   2.0000      -0.322379        -8.7724
  23   2.0000      -0.304457        -8.2847
  24   2.0000      -0.301081        -8.1928
  25   2.0000      -0.276485        -7.5235
  26   2.0000      -0.259630        -7.0649
  27   2.0000      -0.259126        -7.0512
  28   0.0000       0.081036         2.2051
  29   0.0000       0.107489         2.9249
  30   0.0000       0.114351         3.1117
  31   0.0000       0.116676         3.1749
  32   0.0000       0.123374         3.3572

MULLIKEN ATOMIC CHARGES
-----------------------
   0 C :   -0.534536
   1 C :    0.027811
   2 C :   -0.327122
   3 C :   -0.316014
   4 C :   -0.267353
   5 C :   -0.316032
   6 C :   -0.327141
   7 H :    0.147375
   8 H :    0.147361
   9 H :    0.154573
  10 H :    0.148083
  11 H :    0.147259
  12 H :    0.145714
  13 H :    0.144933
  14 H :    0.150951
  15 H :    0.139372
  16 H :    0.145915
  17 H :    0.144924
  18 H :    0.150955
  19 H :    0.147274
  20 H :    0.145697
Sum of atomic charges:   -0.0000000

LOEWDIN ATOMIC CHARGES
----------------------
   0 C :   -0.416615
   1 C :   -0.237987
   2 C :   -0.299325
   3 C :   -0.305048
   4 C :   -0.303782
   5 C :   -0.305052
   6 C :   -0.299326
   7 H :    0.154244
   8 H :    0.154250
   9 H :    0.150647
  10 H :    0.156705
  11 H :    0.157218
  12 H :    0.156457
  13 H :    0.154627
  14 H :    0.153601
  15 H :    0.153793
  16 H :    0.153691
  17 H :    0.154628
  18 H :    0.153595
  19 H :    0.157217
  20 H :    0.156463

  Mayer bond orders larger than 0.100000
B(  0-C ,  1-C ) :   0.8990 B(  0-C ,  7-H ) :   0.9730 B(  0-C ,  8-H ) :   0.9730
B(  0-C ,  9-H ) :   0.9842 B(  1-C ,  2-C ) :   0.9314 B(  1-C ,  6-C ) :   0.9314
B(  1-C , 10-H ) :   0.9358 B(  2-C ,  3-C ) :   0.9053 B(  2-C , 11-H ) :   0.9774
B(  2-C , 12-H ) :   0.9540 B(  3-C ,  4-C ) :   0.9083 B(  3-C , 13-H ) :   0.9385
B(  3-C , 14-H ) :   1.0010 B(  4-C ,  5-C ) :   0.9083 B(  4-C , 15-H ) :   0.9925
B(  4-C , 16-H ) :   0.9444 B(  5-C ,  6-C ) :   0.9053 B(  5-C , 17-H ) :   0.9386
B(  5-C , 18-H ) :   1.0010 B(  6-C , 19-H ) :   0.9774 B(  6-C , 20-H ) :   0.9540

Dispersion correction           -0.006260749
FINAL SINGLE POINT ENERGY      -275.091916750571

DIPOLE MOMENT
-------------

Method             : SCF
Type of density    : Electron Density
Multiplicity       :   1
Irrep              :   0
Energy             :  -275.0947924270714111 Eh
Relativity type    :
Basis              : AO
                                X                 Y                 Z
Electronic contribution:     -0.716734745       0.000388992       0.925071919
Nuclear contribution   :      0.713942384      -0.000415486      -0.893171125
                        -----------------------------------------
Total Dipole Moment    :     -0.002792360      -0.000026494       0.031900794
                        -----------------------------------------
Magnitude (a.u.)       :      0.032022783
Magnitude (Debye)      :      0.081395446

Rotational constants in cm-1:             0.118076             0.085301             0.064980
Rotational constants in MHz :          3539.831033          2557.271834          1948.059989

                             ****ORCA TERMINATED NORMALLY****
TOTAL RUN TIME: 0 days 0 hours 0 minutes 22 seconds 163 msec
