                         Program Version 6.0.0  -   RELEASE  -
|  1> ! r2scan-3c def2/J RI DEFGRID2 scfconv6 printgap
|  2> %output
|  3>     printlevel normal
|  4> end
|  5> %cpcm
|  6>     smd true
|  7>     smdsolvent "water"
|  8> end
|  9> * xyz 0 1
| 10> C 1.952723473 5.44997e-05 -0.7616463463
| 11> C 1.112449113 -2.21648e-05 0.5144299206
| 12> C 0.2382515122 1.2538141017 0.6292497202
| 13> C -0.9171699258 1.2520593511 -0.3682600902
| 14> C -1.7711094755 8.31616e-05 -0.194852093
| 15> C -0.9173253641 -1.2520224362 -0.3681523197
| 16> C 0.2383215185 -1.2539293496 0.6291216154
| 17> H 2.5887083043 0.8820345547 -0.7916141169
| 18> H 2.5888962318 -0.8818919966 -0.7914101954
| 19> H 1.3297946723 -0.0002060495 -1.6508267732
| 20> H 1.8099238472 -2.98564e-05 1.3616418054
| 21> H -0.1735244491 1.300676208 1.6406708957
| 22> H 0.8540606331 2.1434389911 0.480424112
| 23> H -1.5295227857 2.1433904775 -0.2149202596
| 24> H -0.5294720837 1.2905510199 -1.3874956193
| 25> H -2.2129451104 0.0001545414 0.8046837553
| 26> H -2.586238499 9.38549e-05 -0.9216187497
| 27> H -1.529800969 -2.1432252326 -0.2145503167
| 28> H -0.5298274469 -1.2907717501 -1.3874490589
| 29> H -0.1731962391 -1.3011902357 1.6406335995
| 30> H 0.8541442258 -2.1434673984 0.4797883804
| 31> *
| 32>
| 33>                          ****END OF INPUT****

CARTESIAN COORDINATES (ANGSTROEM)
---------------------------------
  C      1.952723    0.000054   -0.761646
  C      1.112449   -0.000022    0.514430
  C      0.238252    1.253814    0.629250
  C     -0.917170    1.252059   -0.368260
  C     -1.771109    0.000083   -0.194852
  C     -0.917325   -1.252022   -0.368152
  C      0.238322   -1.253929    0.629122
  H      2.588708    0.882035   -0.791614
  H      2.588896   -0.881892   -0.791410
  H      1.329795   -0.000206   -1.650827
  H      1.809924   -0.000030    1.361642
  H     -0.173524    1.300676    1.640671
  H      0.854061    2.143439    0.480424
  H     -1.529523    2.143390   -0.214920
  H     -0.529472    1.290551   -1.387496
  H     -2.212945    0.000155    0.804684
  H     -2.586238    0.000094   -0.921619
  H     -1.529801   -2.143225   -0.214550
  H     -0.529827   -1.290772   -1.387449
  H     -0.173196   -1.301190    1.640634
  H      0.854144   -2.143467    0.479788

 Total Charge           Charge          ....    0
 Multiplicity           Mult            ....    1
 Number of Electrons    NEL             ....   56
 Basis Dimension        Dim             ....  203

ORBITAL ENERGIES
----------------

  NO   OCC          E(Eh)            E(eV)
   0   2.0000     -10.019948      -272.6567
   1   2.0000     -10.011311      -272.4216
   2   2.0000     -10.011042      -272.4143
   3   2.0000     -10.011003      -272.4132
   4   2.0000     -10.010215      -272.3918
   5   2.0000     -10.010206      -272.3916
   6   2.0000     -10.003836      -272.2182
   7   2.0000      -0.792579       -21.5672
   8   2.0000      -0.716983       -19.5101
   9   2.0000      -0.696687       -18.9578
  10   2.0000      -0.634618       -17.2688
  11   2.0000      -0.562997       -15.3199
  12   2.0000      -0.551171       -14.9981
  13   2.0000      -0.487135       -13.2556
  14   2.0000      -0.443328       -12.0636
  15   2.0000      -0.407416       -11.0864
  16   2.0000      -0.405231       -11.0269
  17   2.0000      -0.385841       -10.4993
  18   2.0000      -0.361114        -9.8264
  19   2.0000      -0.359075        -9.7709
  20   2.0000      -0.334226        -9.0947
  21   2.0000      -0.317946        -8.6517
  22   2.0000      -0.314872        -8.5681
  23   2.0000      -0.297379        -8.0921
  24   2.0000      -0.293727        -7.9927
  25   2.0000      -0.268971        -7.3191
  26   2.0000      -0.252556        -6.8724
  27   2.0000      -0.252191        -6.8625
  28   0.0000       0.088854         2.4178
  29   0.0000       0.115456         3.1417
  30   0.0000       0.120550         3.2803
  31   0.0000       0.123199         3.3524
  32   0.0000       0.129628         3.5274

MULLIKEN ATOMIC CHARGES
-----------------------
   0 C :   -0.575440
   1 C :    0.037174
   2 C :   -0.344668
   3 C :   -0.328044
   4 C :   -0.285888
   5 C :   -0.328052
   6 C :   -0.344683
   7 H :    0.156962
   8 H :    0.156946
   9 H :    0.168785
  10 H :    0.152479
  11 H :    0.154719
  12 H :    0.152665
  13 H :    0.150693
  14 H :    0.159568
  15 H :    0.147377
  16 H :    0.151770
  17 H :    0.150682
  18 H :    0.159573
  19 H :    0.154734
  20 H :    0.152648
Sum of atomic charges:   -0.0000000

LOEWDIN ATOMIC CHARGES
----------------------
   0 C :   -0.425216
   1 C :   -0.237142
   2 C :   -0.302892
   3 C :   -0.308556
   4 C :   -0.307232
   5 C :   -0.308558
   6 C :   -0.302892
   7 H :    0.156071
   8 H :    0.156076
   9 H :    0.154651
  10 H :    0.157868
  11 H :    0.159036
  12 H :    0.157827
  13 H :    0.155542
  14 H :    0.156240
  15 H :    0.155784
  16 H :    0.154743
  17 H :    0.155544
  18 H :    0.156235
  19 H :    0.159035
  20 H :    0.157834

  Mayer bond orders larger than 0.100000
B(  0-C ,  1-C ) :   0.8915 B(  0-C ,  7-H ) :   0.9711 B(  0-C ,  8-H ) :   0.9711
B(  0-C ,  9-H ) :   0.9803 B(  1-C ,  2-C ) :   0.9291 B(  1-C ,  6-C ) :   0.9291
B(  1-C , 10-H ) :   0.9361 B(  2-C ,  3-C ) :   0.9054 B(  2-C , 11-H ) :   0.9763
B(  2-C , 12-H ) :   0.9535 B(  3-C ,  4-C ) :   0.9078 B(  3-C , 13-H ) :   0.9383
B(  3-C , 14-H ) :   0.9982 B(  4-C ,  5-C ) :   0.9079 B(  4-C , 15-H ) :   0.9916
B(  4-C , 16-H ) :   0.9439 B(  5-C ,  6-C ) :   0.9054 B(  5-C , 17-H ) :   0.9383
B(  5-C , 18-H ) :   0.9982 B(  6-C , 19-H ) :   0.9762 B(  6-C , 20-H ) :   0.9535

Dispersion correction           -0.006260749
FINAL SINGLE POINT ENERGY      -275.089670136441

DIPOLE MOMENT
-------------

Method             : SCF
Type of density    : Electron Density
Multiplicity       :   1
Irrep              :   0
Energy             :  -275.0925458129411822 Eh
Relativity type    :
Basis              : AO
                                X                 Y                 Z
Electronic contribution:     -0.715369618       0.000365436       0.923736364
Nuclear contribution   :      0.713942384      -0.000415486      -0.893171125
                        -----------------------------------------
Total Dipole Moment    :     -0.001427233      -0.000050050       0.030565239
                        -----------------------------------------
Magnitude (a.u.)       :      0.030598584
Magnitude (Debye)      :      0.077775420

Rotational constants in cm-1:             0.118076             0.085301             0.064980
Rotational constants in MHz :          3539.831033          2557.271834          1948.059989

                             ****ORCA TERMINATED NORMALLY****
TOTAL RUN TIME: 0 days 0 hours 0 minutes 25 seconds 234 msec
