                         Program Version 6.0.0  -   RELEASE  -
|  1> ! pbe def2-sv(p) def2/J RI DEFGRID1 loosescf d4 GCP(DFT/SV(P)) printgap
|  2> %output
|  3>     printlevel normal
|  4> end
|  5> * xyz 0 1
|  6> C -2.0573625971 -1.1819222598 -0.294115645
|  7> C -1.2775443373 -0.3420312604 0.7377940337
|  8> H -1.927924263 -0.2424754297 1.6133467969
|  9> C -0.9322977377 1.0842515776 0.2335849703
| 10> H -1.2741800623 1.2270012851 -0.7963984244
| 11> C 0.5882910489 1.2895784107 0.2423002412
| 12> H 0.9439338436 1.3597337266 1.2836527601
| 13> C 1.2646447621 0.077348003 -0.4104368747
| 14> H 0.8539266105 -0.0532989789 -1.4221420523
| 15> C 0.9722630552 -1.1894355132 0.423476727
| 16> H 1.8062974765 -1.3646260308 1.1150696027
| 17> O -0.1420752271 -1.0218483189 1.2665633196
| 18> O 0.8955153321 -2.3307975182 -0.3666269262
| 19> O 2.643249385 0.3532824037 -0.4793780853
| 20> O 0.883797647 2.4716529122 -0.4537972269
| 21> O -1.6177159085 2.0665945575 0.963127211
| 22> O -1.414074803 -1.307171929 -1.5467386203
| 23> H -3.0513953537 -0.744805748 -0.406298117
| 24> H -2.1555143915 -2.1944181473 0.1070026568
| 25> H 0.1484490507 -2.2429811287 -0.9915482016
| 26> H 3.0982053324 -0.3654969226 -0.9398554238
| 27> H 1.8437865692 2.5085237914 -0.5877683992
| 28> H -1.2290830264 2.1591198716 1.8447652066
| 29> H -1.6941264057 -0.5997417731 -2.141648936
| 30> *
| 31>
| 32>                          ****END OF INPUT****

CARTESIAN COORDINATES (ANGSTROEM)
---------------------------------
  C     -2.057363   -1.181922   -0.294116
  C     -1.277544   -0.342031    0.737794
  H     -1.927924   -0.242475    1.613347
  C     -0.932298    1.084252    0.233585
  H     -1.274180    1.227001   -0.796398
  C      0.588291    1.289578    0.242300
  H      0.943934    1.359734    1.283653
  C      1.264645    0.077348   -0.410437
  H      0.853927   -0.053299   -1.422142
  C      0.972263   -1.189436    0.423477
  H      1.806297   -1.364626    1.115070
  O     -0.142075   -1.021848    1.266563
  O      0.895515   -2.330798   -0.366627
  O      2.643249    0.353282   -0.479378
  O      0.883798    2.471653   -0.453797
  O     -1.617716    2.066595    0.963127
  O     -1.414075   -1.307172   -1.546739
  H     -3.051395   -0.744806   -0.406298
  H     -2.155514   -2.194418    0.107003
  H      0.148449   -2.242981   -0.991548
  H      3.098205   -0.365497   -0.939855
  H      1.843787    2.508524   -0.587768
  H     -1.229083    2.159120    1.844765
  H     -1.694126   -0.599742   -2.141649

 Total Charge           Charge          ....    0
 Multiplicity           Mult            ....    1
 Number of Electrons    NEL             ....   96
 Basis Dimension        Dim             ....  192

ORBITAL ENERGIES
----------------

  NO   OCC          E(Eh)            E(eV)
   0   2.0000     -18.790583      -511.3178
   1   2.0000     -18.764073      -510.5964
   2   2.0000     -18.763368      -510.5772
   3   2.0000     -18.750780      -510.2347
   4   2.0000     -18.743986      -510.0498
   5   2.0000     -18.741597      -509.9848
   6   2.0000      -9.976519      -271.4749
   7   2.0000      -9.951490      -270.7938
   8   2.0000      -9.948802      -270.7207
   9   2.0000      -9.947923      -270.6967
  10   2.0000      -9.943307      -270.5711
  11   2.0000      -9.941055      -270.5098
  12   2.0000      -0.975841       -26.5540
  13   2.0000      -0.955810       -26.0089
  14   2.0000      -0.943056       -25.6618
  15   2.0000      -0.934552       -25.4304
  16   2.0000      -0.912912       -24.8416
  17   2.0000      -0.900407       -24.5013
  18   2.0000      -0.706159       -19.2156
  19   2.0000      -0.693395       -18.8682
  20   2.0000      -0.629033       -17.1169
  21   2.0000      -0.589110       -16.0305
  22   2.0000      -0.571739       -15.5578
  23   2.0000      -0.528602       -14.3840
  24   2.0000      -0.504717       -13.7341
  25   2.0000      -0.490666       -13.3517
  26   2.0000      -0.485835       -13.2202
  27   2.0000      -0.459530       -12.5044
  28   2.0000      -0.444401       -12.0928
  29   2.0000      -0.429228       -11.6799
  30   2.0000      -0.421353       -11.4656
  31   2.0000      -0.412625       -11.2281
  32   2.0000      -0.402674       -10.9573
  33   2.0000      -0.381577       -10.3832
  34   2.0000      -0.354466        -9.6455
  35   2.0000      -0.351365        -9.5611
  36   2.0000      -0.321957        -8.7609
  37   2.0000      -0.314079        -8.5465
  38   2.0000      -0.309718        -8.4279
  39   2.0000      -0.294481        -8.0132
  40   2.0000      -0.287091        -7.8121
  41   2.0000      -0.276930        -7.5356
  42   2.0000      -0.263129        -7.1601
  43   2.0000      -0.254419        -6.9231
  44   2.0000      -0.235998        -6.4218
  45   2.0000      -0.223115        -6.0713
  46   2.0000      -0.209909        -5.7119
  47   2.0000      -0.201282        -5.4772
  48   0.0000      -0.005165        -0.1405
  49   0.0000       0.022157         0.6029
  50   0.0000       0.030082         0.8186
  51   0.0000       0.049629         1.3505
  52   0.0000       0.063410         1.7255

MULLIKEN ATOMIC CHARGES
-----------------------
   0 C :   -0.027232
   1 C :    0.082161
   2 H :    0.069182
   3 C :    0.060991
   4 H :    0.041621
   5 C :    0.068038
   6 H :    0.047567
   7 C :   -0.022410
   8 H :    0.041669
   9 C :    0.215266
  10 H :    0.063517
  11 O :   -0.304281
  12 O :   -0.416574
  13 O :   -0.423594
  14 O :   -0.411438
  15 O :   -0.411364
  16 O :   -0.441391
  17 H :    0.104187
  18 H :    0.109183
  19 H :    0.309257
  20 H :    0.312265
  21 H :    0.305653
  22 H :    0.301515
  23 H :    0.326213
Sum of atomic charges:    0.0000000

LOEWDIN ATOMIC CHARGES
----------------------
   0 C :   -0.139987
   1 C :   -0.077260
   2 H :    0.123628
   3 C :   -0.064089
   4 H :    0.105469
   5 C :   -0.072754
   6 H :    0.101656
   7 C :   -0.099873
   8 H :    0.097906
   9 C :   -0.013118
  10 H :    0.110053
  11 O :   -0.147688
  12 O :   -0.320989
  13 O :   -0.321248
  14 O :   -0.318655
  15 O :   -0.308489
  16 O :   -0.325913
  17 H :    0.116732
  18 H :    0.121927
  19 H :    0.271574
  20 H :    0.293989
  21 H :    0.284609
  22 H :    0.285973
  23 H :    0.296546

  Mayer bond orders larger than 0.100000
B(  0-C ,  1-C ) :   1.0135 B(  0-C , 16-O ) :   1.0353 B(  0-C , 17-H ) :   0.9227
B(  0-C , 18-H ) :   0.9187 B(  1-C ,  2-H ) :   0.8822 B(  1-C ,  3-C ) :   0.9293
B(  1-C , 11-O ) :   1.0482 B(  3-C ,  4-H ) :   0.8787 B(  3-C ,  5-C ) :   1.0195
B(  3-C , 15-O ) :   1.0592 B(  5-C ,  6-H ) :   0.8612 B(  5-C ,  7-C ) :   1.0060
B(  5-C , 14-O ) :   1.1060 B(  7-C ,  8-H ) :   0.8765 B(  7-C ,  9-C ) :   0.9753
B(  7-C , 13-O ) :   1.0600 B(  9-C , 10-H ) :   0.8883 B(  9-C , 11-O ) :   1.0413
B(  9-C , 12-O ) :   1.1311 B( 12-O , 19-H ) :   0.8003 B( 13-O , 20-H ) :   0.8415
B( 14-O , 21-H ) :   0.8331 B( 15-O , 22-H ) :   0.8480 B( 16-O , 23-H ) :   0.8295

Dispersion correction           -0.025265066
FINAL SINGLE POINT ENERGY      -685.694104763287

DIPOLE MOMENT
-------------

Method             : SCF
Type of density    : Electron Density
Multiplicity       :   1
Irrep              :   0
Energy             :  -685.8259095412942088 Eh
Relativity type    :
Basis              : AO
                                X                 Y                 Z
Electronic contribution:      2.205754800       0.472527477       0.810991824
Nuclear contribution   :     -2.456041798      -0.515812082      -1.249232724
                        -----------------------------------------
Total Dipole Moment    :     -0.250286999      -0.043284605      -0.438240899
                        -----------------------------------------
Magnitude (a.u.)       :      0.506529589
Magnitude (Debye)      :      1.287495897

Rotational constants in cm-1:             0.035432             0.032631             0.021723
Rotational constants in MHz :          1062.225826           978.239772           651.229183

                             ****ORCA TERMINATED NORMALLY****
TOTAL RUN TIME: 0 days 0 hours 0 minutes 12 seconds 78 msec
