                         Program Version 6.0.0  -   RELEASE  -
|  1> ! wb97x-v def2-tzvp def2/J RIJCOSX DEFGRID2 scfconv7 GCP(DFT/TZ) printgap
|  2> %output
|  3>     printlevel normal
|  4> end
|  5> * xyz 0 1
|  6> C 1.4855199896333957 0.15034733386599963 1.1589934515953524
|  7> C 0.7272415665176817 -0.15007511206151705 -0.1045027197859773
|  8> C 1.3292956819922046 -0.6879701828769011 -1.1741507809649512
|  9> C -0.7272191863421312 0.1501545821422218 -0.10448674325774747
| 10> C -1.3292926996716852 0.6880973285854106 -1.174099779286511
| 11> C -1.4854840680176729 -0.1503364278585828 1.1590012830519958
| 12> H 1.3371723884792697 1.1912399120558947 1.4696545261998855
| 13> H 2.554795269291545 -0.02742432910218901 1.0228408838789138
| 14> H 1.1359296530547935 -0.4785800204495361 1.985971022167086
| 15> H 0.769966824500496 -0.950906876592881 -2.067022587100715
| 16> H 2.39716680013495 -0.8888712427723884 -1.1709786698863112
| 17> H -2.3971762492868245 0.8889354521682766 -1.1709118130943994
| 18> H -0.769999905099477 0.9510314085043678 -2.066994097709927
| 19> H -1.337124163564134 -1.191243001826794 1.4696094865578955
| 20> H -1.1358904976760837 0.47855313941923455 1.9860056636810113
| 21> H -2.554762483498924 0.027432577493080167 1.0228681930789691
| 22> *
| 23>
| 24>                          ****END OF INPUT****

CARTESIAN COORDINATES (ANGSTROEM)
---------------------------------
  C      1.485520    0.150347    1.158993
  C      0.727242   -0.150075   -0.104503
  C      1.329296   -0.687970   -1.174151
  C     -0.727219    0.150155   -0.104487
  C     -1.329293    0.688097   -1.174100
  C     -1.485484   -0.150336    1.159001
  H      1.337172    1.191240    1.469655
  H      2.554795   -0.027424    1.022841
  H      1.135930   -0.478580    1.985971
  H      0.769967   -0.950907   -2.067023
  H      2.397167   -0.888871   -1.170979
  H     -2.397176    0.888935   -1.170912
  H     -0.770000    0.951031   -2.066994
  H     -1.337124   -1.191243    1.469609
  H     -1.135890    0.478553    1.986006
  H     -2.554762    0.027433    1.022868

 Total Charge           Charge          ....    0
 Multiplicity           Mult            ....    1
 Number of Electrons    NEL             ....   46
 Basis Dimension        Dim             ....  246

ORBITAL ENERGIES
----------------

  NO   OCC          E(Eh)            E(eV)
   0   2.0000     -12.060443      -328.1813
   1   2.0000     -12.058953      -328.1408
   2   2.0000     -12.043353      -327.7163
   3   2.0000     -12.043208      -327.7124
   4   2.0000     -12.034609      -327.4784
   5   2.0000     -12.034502      -327.4754
   6   2.0000      -1.350488       -36.7487
   7   2.0000      -1.276257       -34.7287
   8   2.0000      -1.198173       -32.6040
   9   2.0000      -1.178274       -32.0625
  10   2.0000      -1.074940       -29.2506
  11   2.0000      -0.967979       -26.3401
  12   2.0000      -0.924521       -25.1575
  13   2.0000      -0.902895       -24.5690
  14   2.0000      -0.869254       -23.6536
  15   2.0000      -0.842088       -22.9144
  16   2.0000      -0.830671       -22.6037
  17   2.0000      -0.830380       -22.5958
  18   2.0000      -0.813820       -22.1452
  19   2.0000      -0.802194       -21.8288
  20   2.0000      -0.781299       -21.2602
  21   2.0000      -0.681163       -18.5354
  22   2.0000      -0.619297       -16.8519
  23   0.0000      -0.233098        -6.3429
  24   0.0000      -0.158546        -4.3143
  25   0.0000      -0.028355        -0.7716
  26   0.0000      -0.022684        -0.6173
  27   0.0000      -0.011274        -0.3068

MULLIKEN ATOMIC CHARGES
-----------------------
   0 C :   -0.356350
   1 C :    0.044773
   2 C :   -0.294803
   3 C :    0.044794
   4 C :   -0.294820
   5 C :   -0.356338
   6 H :    0.126528
   7 H :    0.114915
   8 H :    0.125194
   9 H :    0.128493
  10 H :    0.111243
  11 H :    0.111251
  12 H :    0.128480
  13 H :    0.126530
  14 H :    0.125196
  15 H :    0.114913
Sum of atomic charges:    0.0000000

LOEWDIN ATOMIC CHARGES
----------------------
   0 C :   -0.251507
   1 C :   -0.194186
   2 C :   -0.176254
   3 C :   -0.194185
   4 C :   -0.176254
   5 C :   -0.251507
   6 H :    0.126937
   7 H :    0.125161
   8 H :    0.127012
   9 H :    0.123773
  10 H :    0.119063
  11 H :    0.119063
  12 H :    0.123772
  13 H :    0.126938
  14 H :    0.127012
  15 H :    0.125160

  Mayer bond orders larger than 0.100000
B(  0-C ,  1-C ) :   0.9495 B(  0-C ,  6-H ) :   0.9784 B(  0-C ,  7-H ) :   0.9801
B(  0-C ,  8-H ) :   0.9681 B(  1-C ,  2-C ) :   1.9002 B(  1-C ,  3-C ) :   0.9606
B(  2-C ,  9-H ) :   0.9695 B(  2-C , 10-H ) :   0.9646 B(  3-C ,  4-C ) :   1.9002
B(  3-C ,  5-C ) :   0.9495 B(  4-C , 11-H ) :   0.9646 B(  4-C , 12-H ) :   0.9695
B(  5-C , 13-H ) :   0.9784 B(  5-C , 14-H ) :   0.9681 B(  5-C , 15-H ) :   0.9801

FINAL SINGLE POINT ENERGY      -234.624908191576

DIPOLE MOMENT
-------------

Method             : SCF
Type of density    : Electron Density
Multiplicity       :   1
Irrep              :   0
Energy             :  -234.6346135567757472 Eh
Relativity type    :
Basis              : AO
                                X                 Y                 Z
Electronic contribution:      0.000020690       0.000122279      -2.095554253
Nuclear contribution   :     -0.000020168      -0.000160921       2.370219334
                        -----------------------------------------
Total Dipole Moment    :      0.000000522      -0.000038643       0.274665081
                        -----------------------------------------
Magnitude (a.u.)       :      0.274665084
Magnitude (Debye)      :      0.698143161

Rotational constants in cm-1:             0.158432             0.105689             0.071439
Rotational constants in MHz :          4749.660624          3168.488023          2141.685442

                             ****ORCA TERMINATED NORMALLY****
TOTAL RUN TIME: 0 days 0 hours 1 minutes 35 seconds 449 msec
