                         Program Version 6.0.0  -   RELEASE  -
|  1> ! wb97x-v def2-tzvp def2/J RIJCOSX DEFGRID2 scfconv7 GCP(DFT/TZ) printgap
|  2> %output
|  3>     printlevel normal
|  4> end
|  5> %cpcm
|  6>     smd true
|  7>     smdsolvent "water"
|  8> end
|  9> * xyz 0 1
| 10> C 1.4855199896333957 0.15034733386599963 1.1589934515953524
| 11> C 0.7272415665176817 -0.15007511206151705 -0.1045027197859773
| 12> C 1.3292956819922046 -0.6879701828769011 -1.1741507809649512
| 13> C -0.7272191863421312 0.1501545821422218 -0.10448674325774747
| 14> C -1.3292926996716852 0.6880973285854106 -1.174099779286511
| 15> C -1.4854840680176729 -0.1503364278585828 1.1590012830519958
| 16> H 1.3371723884792697 1.1912399120558947 1.4696545261998855
| 17> H 2.554795269291545 -0.02742432910218901 1.0228408838789138
| 18> H 1.1359296530547935 -0.4785800204495361 1.985971022167086
| 19> H 0.769966824500496 -0.950906876592881 -2.067022587100715
| 20> H 2.39716680013495 -0.8888712427723884 -1.1709786698863112
| 21> H -2.3971762492868245 0.8889354521682766 -1.1709118130943994
| 22> H -0.769999905099477 0.9510314085043678 -2.066994097709927
| 23> H -1.337124163564134 -1.191243001826794 1.4696094865578955
| 24> H -1.1358904976760837 0.47855313941923455 1.9860056636810113
| 25> H -2.554762483498924 0.027432577493080167 1.0228681930789691
| 26> *
| 27>
| 28>                          ****END OF INPUT****

CARTESIAN COORDINATES (ANGSTROEM)
---------------------------------
  C      1.485520    0.150347    1.158993
  C      0.727242   -0.150075   -0.104503
  C      1.329296   -0.687970   -1.174151
  C     -0.727219    0.150155   -0.104487
  C     -1.329293    0.688097   -1.174100
  C     -1.485484   -0.150336    1.159001
  H      1.337172    1.191240    1.469655
  H      2.554795   -0.027424    1.022841
  H      1.135930   -0.478580    1.985971
  H      0.769967   -0.950907   -2.067023
  H      2.397167   -0.888871   -1.170979
  H     -2.397176    0.888935   -1.170912
  H     -0.770000    0.951031   -2.066994
  H     -1.337124   -1.191243    1.469609
  H     -1.135890    0.478553    1.986006
  H     -2.554762    0.027433    1.022868

 Total Charge           Charge          ....    0
 Multiplicity           Mult            ....    1
 Number of Electrons    NEL             ....   46
 Basis Dimension        Dim             ....  246

ORBITAL ENERGIES
----------------

  NO   OCC          E(Eh)            E(eV)
   0   2.0000     -12.059254      -328.1490
   1   2.0000     -12.057757      -328.1082
   2   2.0000     -12.033493      -327.4480
   3   2.0000     -12.033313      -327.4431
   4   2.0000     -12.031324      -327.3890
   5   2.0000     -12.031239      -327.3867
   6   2.0000      -1.348336       -36.6901
   7   2.0000      -1.273051       -34.6415
   8   2.0000      -1.192166       -32.4405
   9   2.0000      -1.172255       -31.8987
  10   2.0000      -1.071419       -29.1548
  11   2.0000      -0.963864       -26.2281
  12   2.0000      -0.920938       -25.0600
  13   2.0000      -0.898357       -24.4455
  14   2.0000      -0.864889       -23.5348
  15   2.0000      -0.834522       -22.7085
  16   2.0000      -0.822551       -22.3827
  17   2.0000      -0.821376       -22.3508
  18   2.0000      -0.805444       -21.9173
  19   2.0000      -0.795268       -21.6404
  20   2.0000      -0.776808       -21.1380
  21   2.0000      -0.679644       -18.4940
  22   2.0000      -0.619098       -16.8465
  23   0.0000      -0.232809        -6.3350
  24   0.0000      -0.157222        -4.2782
  25   0.0000      -0.021432        -0.5832
  26   0.0000      -0.017480        -0.4756
  27   0.0000      -0.000184        -0.0050

MULLIKEN ATOMIC CHARGES
-----------------------
   0 C :   -0.386398
   1 C :    0.023265
   2 C :   -0.377196
   3 C :    0.023293
   4 C :   -0.377220
   5 C :   -0.386385
   6 H :    0.142927
   7 H :    0.138472
   8 H :    0.147246
   9 H :    0.158446
  10 H :    0.153230
  11 H :    0.153237
  12 H :    0.158435
  13 H :    0.142930
  14 H :    0.147248
  15 H :    0.138470
Sum of atomic charges:    0.0000000

LOEWDIN ATOMIC CHARGES
----------------------
   0 C :   -0.253439
   1 C :   -0.200737
   2 C :   -0.194646
   3 C :   -0.200736
   4 C :   -0.194648
   5 C :   -0.253439
   6 H :    0.131755
   7 H :    0.129510
   8 H :    0.133509
   9 H :    0.127750
  10 H :    0.126299
  11 H :    0.126299
  12 H :    0.127749
  13 H :    0.131755
  14 H :    0.133509
  15 H :    0.129510

  Mayer bond orders larger than 0.100000
B(  0-C ,  1-C ) :   0.9555 B(  0-C ,  6-H ) :   0.9704 B(  0-C ,  7-H ) :   0.9762
B(  0-C ,  8-H ) :   0.9630 B(  1-C ,  2-C ) :   1.8802 B(  1-C ,  3-C ) :   0.9510
B(  2-C ,  9-H ) :   0.9685 B(  2-C , 10-H ) :   0.9646 B(  3-C ,  4-C ) :   1.8801
B(  3-C ,  5-C ) :   0.9554 B(  4-C , 11-H ) :   0.9646 B(  4-C , 12-H ) :   0.9685
B(  5-C , 13-H ) :   0.9704 B(  5-C , 14-H ) :   0.9630 B(  5-C , 15-H ) :   0.9762

FINAL SINGLE POINT ENERGY      -234.623166142489

DIPOLE MOMENT
-------------

Method             : SCF
Type of density    : Electron Density
Multiplicity       :   1
Irrep              :   0
Energy             :  -234.6328715076890887 Eh
Relativity type    :
Basis              : AO
                                X                 Y                 Z
Electronic contribution:      0.000020118       0.000102778      -1.936222484
Nuclear contribution   :     -0.000020168      -0.000160921       2.370219334
                        -----------------------------------------
Total Dipole Moment    :     -0.000000050      -0.000058144       0.433996850
                        -----------------------------------------
Magnitude (a.u.)       :      0.433996854
Magnitude (Debye)      :      1.103132336

Rotational constants in cm-1:             0.158432             0.105689             0.071439
Rotational constants in MHz :          4749.660624          3168.488023          2141.685442

                             ****ORCA TERMINATED NORMALLY****
TOTAL RUN TIME: 0 days 0 hours 1 minutes 25 seconds 160 msec
