                         Program Version 6.0.0  -   RELEASE  -
|  1> ! pbe def2-sv(p) def2/J RI DEFGRID1 loosescf d4 GCP(DFT/SV(P)) printgap
|  2> %output
|  3>     printlevel normal
|  4> end
|  5> * xyz 0 1
|  6> C -2.2132023748 -0.9760737217 -0.4252205233
|  7> C -1.1846473676 -0.1939720232 0.4074880516
|  8> H -1.6873282278 0.2429839357 1.2789172445
|  9> C -0.5882659784 0.9526569582 -0.419447257
| 10> H -0.4491642986 0.6239452658 -1.4628285614
| 11> C 0.7848123793 1.3186655345 0.17088177
| 12> H 0.663602456 1.4979389219 1.2464060298
| 13> C 1.7398169032 0.1408204329 -0.0535739989
| 14> H 2.0590890397 0.1228919313 -1.1021351566
| 15> C 0.9933208549 -1.1962717174 0.2044991111
| 16> H 1.6303912089 -1.8317688071 0.8374029281
| 17> O -0.175581564 -1.0328273305 0.9661781417
| 18> O 0.7543392491 -1.7936281354 -1.0307659367
| 19> O 2.9221143778 0.2435224495 0.6906006651
| 20> O 1.2528042311 2.5329888838 -0.3555180656
| 21> O -1.4727324966 2.0419242898 -0.3798144675
| 22> O -2.8091675295 -2.0386870808 0.2725873848
| 23> H -1.7222133969 -1.4247627542 -1.2906891914
| 24> H -2.9636490487 -0.2554782429 -0.7757858016
| 25> H 0.4319876077 -2.6995643919 -0.9044020626
| 26> H 2.7188473408 0.3674165885 1.6293128032
| 27> H 1.6207617388 2.3941261201 -1.2404713115
| 28> H -0.9515643354 2.8559852106 -0.4901163418
| 29> H -3.260672179 -1.6983837694 1.0575600421
| 30> *
| 31>
| 32>                          ****END OF INPUT****

CARTESIAN COORDINATES (ANGSTROEM)
---------------------------------
  C     -2.213202   -0.976074   -0.425221
  C     -1.184647   -0.193972    0.407488
  H     -1.687328    0.242984    1.278917
  C     -0.588266    0.952657   -0.419447
  H     -0.449164    0.623945   -1.462829
  C      0.784812    1.318666    0.170882
  H      0.663602    1.497939    1.246406
  C      1.739817    0.140820   -0.053574
  H      2.059089    0.122892   -1.102135
  C      0.993321   -1.196272    0.204499
  H      1.630391   -1.831769    0.837403
  O     -0.175582   -1.032827    0.966178
  O      0.754339   -1.793628   -1.030766
  O      2.922114    0.243522    0.690601
  O      1.252804    2.532989   -0.355518
  O     -1.472732    2.041924   -0.379814
  O     -2.809168   -2.038687    0.272587
  H     -1.722213   -1.424763   -1.290689
  H     -2.963649   -0.255478   -0.775786
  H      0.431988   -2.699564   -0.904402
  H      2.718847    0.367417    1.629313
  H      1.620762    2.394126   -1.240471
  H     -0.951564    2.855985   -0.490116
  H     -3.260672   -1.698384    1.057560

 Total Charge           Charge          ....    0
 Multiplicity           Mult            ....    1
 Number of Electrons    NEL             ....   96
 Basis Dimension        Dim             ....  192

ORBITAL ENERGIES
----------------

  NO   OCC          E(Eh)            E(eV)
   0   2.0000     -18.770650      -510.7753
   1   2.0000     -18.769885      -510.7545
   2   2.0000     -18.767645      -510.6936
   3   2.0000     -18.757346      -510.4133
   4   2.0000     -18.749124      -510.1896
   5   2.0000     -18.743148      -510.0270
   6   2.0000      -9.988844      -271.8103
   7   2.0000      -9.950899      -270.7777
   8   2.0000      -9.949297      -270.7341
   9   2.0000      -9.943239      -270.5693
  10   2.0000      -9.942712      -270.5550
  11   2.0000      -9.925075      -270.0750
  12   2.0000      -0.984260       -26.7831
  13   2.0000      -0.955660       -26.0048
  14   2.0000      -0.934573       -25.4310
  15   2.0000      -0.924574       -25.1589
  16   2.0000      -0.918836       -25.0028
  17   2.0000      -0.911002       -24.7896
  18   2.0000      -0.708174       -19.2704
  19   2.0000      -0.693746       -18.8778
  20   2.0000      -0.621717       -16.9178
  21   2.0000      -0.584450       -15.9037
  22   2.0000      -0.577478       -15.7140
  23   2.0000      -0.532598       -14.4927
  24   2.0000      -0.513549       -13.9744
  25   2.0000      -0.492198       -13.3934
  26   2.0000      -0.468192       -12.7402
  27   2.0000      -0.459117       -12.4932
  28   2.0000      -0.440869       -11.9967
  29   2.0000      -0.427575       -11.6349
  30   2.0000      -0.419509       -11.4154
  31   2.0000      -0.406806       -11.0698
  32   2.0000      -0.385374       -10.4866
  33   2.0000      -0.382402       -10.4057
  34   2.0000      -0.362588        -9.8665
  35   2.0000      -0.353458        -9.6181
  36   2.0000      -0.332791        -9.0557
  37   2.0000      -0.316456        -8.6112
  38   2.0000      -0.303956        -8.2711
  39   2.0000      -0.294978        -8.0268
  40   2.0000      -0.281930        -7.6717
  41   2.0000      -0.270126        -7.3505
  42   2.0000      -0.268670        -7.3109
  43   2.0000      -0.242965        -6.6114
  44   2.0000      -0.233958        -6.3663
  45   2.0000      -0.227710        -6.1963
  46   2.0000      -0.210545        -5.7292
  47   2.0000      -0.204774        -5.5722
  48   0.0000       0.013952         0.3797
  49   0.0000       0.021477         0.5844
  50   0.0000       0.027110         0.7377
  51   0.0000       0.036565         0.9950
  52   0.0000       0.051341         1.3970

MULLIKEN ATOMIC CHARGES
-----------------------
   0 C :    0.053005
   1 C :    0.068191
   2 H :    0.059605
   3 C :   -0.006775
   4 H :    0.056047
   5 C :    0.049476
   6 H :    0.054474
   7 C :    0.065237
   8 H :    0.067248
   9 C :    0.165432
  10 H :    0.064186
  11 O :   -0.312243
  12 O :   -0.398145
  13 O :   -0.408531
  14 O :   -0.411763
  15 O :   -0.415274
  16 O :   -0.429122
  17 H :    0.078114
  18 H :    0.084840
  19 H :    0.314049
  20 H :    0.302427
  21 H :    0.304980
  22 H :    0.300322
  23 H :    0.294220
Sum of atomic charges:    0.0000000

LOEWDIN ATOMIC CHARGES
----------------------
   0 C :   -0.139975
   1 C :   -0.067174
   2 H :    0.112856
   3 C :   -0.081576
   4 H :    0.100761
   5 C :   -0.083455
   6 H :    0.115545
   7 C :   -0.085417
   8 H :    0.119503
   9 C :   -0.008772
  10 H :    0.099604
  11 O :   -0.148056
  12 O :   -0.307276
  13 O :   -0.307205
  14 O :   -0.304711
  15 O :   -0.323913
  16 O :   -0.336316
  17 H :    0.110703
  18 H :    0.104605
  19 H :    0.292560
  20 H :    0.286552
  21 H :    0.289235
  22 H :    0.279215
  23 H :    0.282707

  Mayer bond orders larger than 0.100000
B(  0-C ,  1-C ) :   1.0577 B(  0-C , 16-O ) :   1.0838 B(  0-C , 17-H ) :   0.9004
B(  0-C , 18-H ) :   0.9138 B(  1-C ,  2-H ) :   0.8767 B(  1-C ,  3-C ) :   0.9618
B(  1-C , 11-O ) :   0.9823 B(  3-C ,  4-H ) :   0.8781 B(  3-C ,  5-C ) :   1.0029
B(  3-C , 15-O ) :   1.0868 B(  5-C ,  6-H ) :   0.8502 B(  5-C ,  7-C ) :   1.0219
B(  5-C , 14-O ) :   1.0463 B(  7-C ,  8-H ) :   0.8649 B(  7-C ,  9-C ) :   0.9597
B(  7-C , 13-O ) :   1.0625 B(  9-C , 10-H ) :   0.8996 B(  9-C , 11-O ) :   1.0896
B(  9-C , 12-O ) :   1.0996 B( 12-O , 19-H ) :   0.8307 B( 13-O , 20-H ) :   0.8480
B( 14-O , 21-H ) :   0.8447 B( 15-O , 22-H ) :   0.8205 B( 16-O , 23-H ) :   0.8538

Dispersion correction           -0.024437261
FINAL SINGLE POINT ENERGY      -685.690030905786

DIPOLE MOMENT
-------------

Method             : SCF
Type of density    : Electron Density
Multiplicity       :   1
Irrep              :   0
Energy             :  -685.8198596974614247 Eh
Relativity type    :
Basis              : AO
                                X                 Y                 Z
Electronic contribution:      1.920843112      -0.071949396       1.278798087
Nuclear contribution   :     -1.784833330       0.182560838      -1.139174234
                        -----------------------------------------
Total Dipole Moment    :      0.136009782       0.110611442       0.139623853
                        -----------------------------------------
Magnitude (a.u.)       :      0.224116872
Magnitude (Debye)      :      0.569659816

Rotational constants in cm-1:             0.042843             0.025907             0.018436
Rotational constants in MHz :          1284.413742           776.661194           552.705881

                             ****ORCA TERMINATED NORMALLY****
TOTAL RUN TIME: 0 days 0 hours 0 minutes 12 seconds 220 msec
