                         Program Version 6.0.0  -   RELEASE  -
|  1> ! wb97x-v def2-tzvp def2/J RIJCOSX DEFGRID2 scfconv7 GCP(DFT/TZ) printgap
|  2> %output
|  3>     printlevel normal
|  4> end
|  5> * xyz 0 1
|  6> C 2.3609822665402724 -0.654100045756342 0.17426357946136625
|  7> C 0.8698385482332756 -0.5037315949699841 0.4656641738507244
|  8> H 0.6911145951578503 -0.8514152294796148 1.4949940218234108
|  9> C 0.03078549242594904 -1.3948452462917929 -0.4595935366503837
| 10> C -1.4624365435717122 -1.3019659227238884 -0.1406926330129277
| 11> C -1.9473220956384572 0.14804542228675632 -0.1894180561336522
| 12> C -1.109972542746708 1.0297754249321973 0.7401234319268464
| 13> C 0.39332507221258567 0.9662473422966753 0.42042486129180634
| 14> H 0.9263562346042488 1.504413404563091 1.2174639237688694
| 15> C 0.7216232209129355 1.6724993379701267 -0.8983160060950927
| 16> H 2.960227438199715 0.02061693770441523 0.7966485654305497
| 17> H 2.6928947255327103 -1.6788980179742625 0.37441310432409514
| 18> H 2.588058501104732 -0.4345309669633421 -0.8748488565401347
| 19> H 0.200641912622328 -1.1005201746205422 -1.5045503942318543
| 20> H 0.373608005996473 -2.433461362094083 -0.36886477326708034
| 21> H -2.039356223812165 -1.922613176790755 -0.8367771707439775
| 22> H -1.6398637772121418 -1.7036227476440924 0.8672477905067061
| 23> H -1.8812897029127131 0.5206656755905433 -1.220259843279539
| 24> H -3.0044487618030833 0.2047750437191253 0.09655548977051062
| 25> H -1.453823912109676 2.070565215847136 0.691249340418023
| 26> H -1.2643679003135266 0.6909682442612393 1.7742545523607853
| 27> H 1.8021680768124941 1.7644747149085975 -1.0445141273010776
| 28> H 0.30208053299091103 2.6847084047873526 -0.8985473674052158
| 29> H 0.313340113325154 1.146421701912337 -1.766697611542951
| 30> *
| 31>
| 32>                          ****END OF INPUT****

CARTESIAN COORDINATES (ANGSTROEM)
---------------------------------
  C      2.360982   -0.654100    0.174264
  C      0.869839   -0.503732    0.465664
  H      0.691115   -0.851415    1.494994
  C      0.030785   -1.394845   -0.459594
  C     -1.462437   -1.301966   -0.140693
  C     -1.947322    0.148045   -0.189418
  C     -1.109973    1.029775    0.740123
  C      0.393325    0.966247    0.420425
  H      0.926356    1.504413    1.217464
  C      0.721623    1.672499   -0.898316
  H      2.960227    0.020617    0.796649
  H      2.692895   -1.678898    0.374413
  H      2.588059   -0.434531   -0.874849
  H      0.200642   -1.100520   -1.504550
  H      0.373608   -2.433461   -0.368865
  H     -2.039356   -1.922613   -0.836777
  H     -1.639864   -1.703623    0.867248
  H     -1.881290    0.520666   -1.220260
  H     -3.004449    0.204775    0.096555
  H     -1.453824    2.070565    0.691249
  H     -1.264368    0.690968    1.774255
  H      1.802168    1.764475   -1.044514
  H      0.302081    2.684708   -0.898547
  H      0.313340    1.146422   -1.766698

 Total Charge           Charge          ....    0
 Multiplicity           Mult            ....    1
 Number of Electrons    NEL             ....   64
 Basis Dimension        Dim             ....  344

ORBITAL ENERGIES
----------------

  NO   OCC          E(Eh)            E(eV)
   0   2.0000     -12.041931      -327.6776
   1   2.0000     -12.040799      -327.6468
   2   2.0000     -12.035025      -327.4897
   3   2.0000     -12.034215      -327.4676
   4   2.0000     -12.033057      -327.4361
   5   2.0000     -12.032775      -327.4285
   6   2.0000     -12.028879      -327.3224
   7   2.0000     -12.028351      -327.3081
   8   2.0000      -1.343596       -36.5611
   9   2.0000      -1.268790       -34.5255
  10   2.0000      -1.259388       -34.2697
  11   2.0000      -1.189970       -32.3807
  12   2.0000      -1.149406       -31.2769
  13   2.0000      -1.078945       -29.3596
  14   2.0000      -1.064048       -28.9542
  15   2.0000      -0.985908       -26.8279
  16   2.0000      -0.909813       -24.7573
  17   2.0000      -0.885732       -24.1020
  18   2.0000      -0.872850       -23.7514
  19   2.0000      -0.869713       -23.6661
  20   2.0000      -0.853341       -23.2206
  21   2.0000      -0.833450       -22.6793
  22   2.0000      -0.822481       -22.3808
  23   2.0000      -0.807565       -21.9750
  24   2.0000      -0.805188       -21.9103
  25   2.0000      -0.788728       -21.4624
  26   2.0000      -0.782372       -21.2894
  27   2.0000      -0.773656       -21.0522
  28   2.0000      -0.757667       -20.6172
  29   2.0000      -0.743167       -20.2226
  30   2.0000      -0.731858       -19.9149
  31   2.0000      -0.729096       -19.8397
  32   0.0000      -0.038942        -1.0597
  33   0.0000      -0.031420        -0.8550
  34   0.0000      -0.026010        -0.7078
  35   0.0000      -0.023383        -0.6363
  36   0.0000      -0.017547        -0.4775

MULLIKEN ATOMIC CHARGES
-----------------------
   0 C :   -0.371871
   1 C :   -0.021834
   2 H :    0.067194
   3 C :   -0.245675
   4 C :   -0.155289
   5 C :   -0.212621
   6 C :   -0.199203
   7 C :    0.034848
   8 H :    0.069335
   9 C :   -0.421382
  10 H :    0.113450
  11 H :    0.112563
  12 H :    0.114855
  13 H :    0.096597
  14 H :    0.097437
  15 H :    0.098179
  16 H :    0.085471
  17 H :    0.097933
  18 H :    0.100254
  19 H :    0.098985
  20 H :    0.093141
  21 H :    0.122893
  22 H :    0.112877
  23 H :    0.111863
Sum of atomic charges:    0.0000000

LOEWDIN ATOMIC CHARGES
----------------------
   0 C :   -0.281035
   1 C :   -0.260886
   2 H :    0.150612
   3 C :   -0.235760
   4 C :   -0.258181
   5 C :   -0.258916
   6 C :   -0.236257
   7 C :   -0.257877
   8 H :    0.148050
   9 C :   -0.279108
  10 H :    0.118727
  11 H :    0.117994
  12 H :    0.118540
  13 H :    0.133641
  14 H :    0.133509
  15 H :    0.129815
  16 H :    0.133069
  17 H :    0.132316
  18 H :    0.130562
  19 H :    0.131873
  20 H :    0.135105
  21 H :    0.118783
  22 H :    0.119813
  23 H :    0.115609

  Mayer bond orders larger than 0.100000
B(  0-C ,  1-C ) :   0.9564 B(  0-C , 10-H ) :   0.9860 B(  0-C , 11-H ) :   0.9843
B(  0-C , 12-H ) :   0.9801 B(  1-C ,  2-H ) :   0.9686 B(  1-C ,  3-C ) :   0.9767
B(  1-C ,  7-C ) :   0.9718 B(  3-C ,  4-C ) :   0.9892 B(  3-C , 13-H ) :   0.9766
B(  3-C , 14-H ) :   0.9754 B(  4-C ,  5-C ) :   0.9843 B(  4-C , 15-H ) :   0.9780
B(  4-C , 16-H ) :   0.9741 B(  5-C ,  6-C ) :   0.9793 B(  5-C , 17-H ) :   0.9824
B(  5-C , 18-H ) :   0.9768 B(  6-C ,  7-C ) :   0.9780 B(  6-C , 19-H ) :   0.9809
B(  6-C , 20-H ) :   0.9774 B(  7-C ,  8-H ) :   0.9672 B(  7-C ,  9-C ) :   0.9411
B(  9-C , 21-H ) :   0.9863 B(  9-C , 22-H ) :   0.9828 B(  9-C , 23-H ) :   0.9791

FINAL SINGLE POINT ENERGY      -314.518124521341

DIPOLE MOMENT
-------------

Method             : SCF
Type of density    : Electron Density
Multiplicity       :   1
Irrep              :   0
Energy             :  -314.5355410535414080 Eh
Relativity type    :
Basis              : AO
                                X                 Y                 Z
Electronic contribution:     -1.510067596      -0.454186487       1.191045086
Nuclear contribution   :      1.489144002       0.448824110      -1.146481305
                        -----------------------------------------
Total Dipole Moment    :     -0.020923595      -0.005362377       0.044563781
                        -----------------------------------------
Magnitude (a.u.)       :      0.049522546
Magnitude (Debye)      :      0.125876307

Rotational constants in cm-1:             0.088521             0.063525             0.045827
Rotational constants in MHz :          2653.798343          1904.420732          1373.858050

                             ****ORCA TERMINATED NORMALLY****
TOTAL RUN TIME: 0 days 0 hours 3 minutes 37 seconds 44 msec
