                         Program Version 6.0.0  -   RELEASE  -
|  1> ! wb97x-v def2-tzvp def2/J RIJCOSX DEFGRID2 scfconv7 GCP(DFT/TZ) printgap
|  2> %output
|  3>     printlevel normal
|  4> end
|  5> %cpcm
|  6>     smd true
|  7>     smdsolvent "water"
|  8> end
|  9> * xyz 0 1
| 10> C 2.3609822665402724 -0.654100045756342 0.17426357946136625
| 11> C 0.8698385482332756 -0.5037315949699841 0.4656641738507244
| 12> H 0.6911145951578503 -0.8514152294796148 1.4949940218234108
| 13> C 0.03078549242594904 -1.3948452462917929 -0.4595935366503837
| 14> C -1.4624365435717122 -1.3019659227238884 -0.1406926330129277
| 15> C -1.9473220956384572 0.14804542228675632 -0.1894180561336522
| 16> C -1.109972542746708 1.0297754249321973 0.7401234319268464
| 17> C 0.39332507221258567 0.9662473422966753 0.42042486129180634
| 18> H 0.9263562346042488 1.504413404563091 1.2174639237688694
| 19> C 0.7216232209129355 1.6724993379701267 -0.8983160060950927
| 20> H 2.960227438199715 0.02061693770441523 0.7966485654305497
| 21> H 2.6928947255327103 -1.6788980179742625 0.37441310432409514
| 22> H 2.588058501104732 -0.4345309669633421 -0.8748488565401347
| 23> H 0.200641912622328 -1.1005201746205422 -1.5045503942318543
| 24> H 0.373608005996473 -2.433461362094083 -0.36886477326708034
| 25> H -2.039356223812165 -1.922613176790755 -0.8367771707439775
| 26> H -1.6398637772121418 -1.7036227476440924 0.8672477905067061
| 27> H -1.8812897029127131 0.5206656755905433 -1.220259843279539
| 28> H -3.0044487618030833 0.2047750437191253 0.09655548977051062
| 29> H -1.453823912109676 2.070565215847136 0.691249340418023
| 30> H -1.2643679003135266 0.6909682442612393 1.7742545523607853
| 31> H 1.8021680768124941 1.7644747149085975 -1.0445141273010776
| 32> H 0.30208053299091103 2.6847084047873526 -0.8985473674052158
| 33> H 0.313340113325154 1.146421701912337 -1.766697611542951
| 34> *
| 35>
| 36>                          ****END OF INPUT****

CARTESIAN COORDINATES (ANGSTROEM)
---------------------------------
  C      2.360982   -0.654100    0.174264
  C      0.869839   -0.503732    0.465664
  H      0.691115   -0.851415    1.494994
  C      0.030785   -1.394845   -0.459594
  C     -1.462437   -1.301966   -0.140693
  C     -1.947322    0.148045   -0.189418
  C     -1.109973    1.029775    0.740123
  C      0.393325    0.966247    0.420425
  H      0.926356    1.504413    1.217464
  C      0.721623    1.672499   -0.898316
  H      2.960227    0.020617    0.796649
  H      2.692895   -1.678898    0.374413
  H      2.588059   -0.434531   -0.874849
  H      0.200642   -1.100520   -1.504550
  H      0.373608   -2.433461   -0.368865
  H     -2.039356   -1.922613   -0.836777
  H     -1.639864   -1.703623    0.867248
  H     -1.881290    0.520666   -1.220260
  H     -3.004449    0.204775    0.096555
  H     -1.453824    2.070565    0.691249
  H     -1.264368    0.690968    1.774255
  H      1.802168    1.764475   -1.044514
  H      0.302081    2.684708   -0.898547
  H      0.313340    1.146422   -1.766698

 Total Charge           Charge          ....    0
 Multiplicity           Mult            ....    1
 Number of Electrons    NEL             ....   64
 Basis Dimension        Dim             ....  344

ORBITAL ENERGIES
----------------

  NO   OCC          E(Eh)            E(eV)
   0   2.0000     -12.033559      -327.4498
   1   2.0000     -12.032395      -327.4181
   2   2.0000     -12.026946      -327.2699
   3   2.0000     -12.026030      -327.2449
   4   2.0000     -12.024757      -327.2103
   5   2.0000     -12.024208      -327.1953
   6   2.0000     -12.020760      -327.1015
   7   2.0000     -12.019422      -327.0651
   8   2.0000      -1.335306       -36.3355
   9   2.0000      -1.260825       -34.3088
  10   2.0000      -1.251230       -34.0477
  11   2.0000      -1.182059       -32.1655
  12   2.0000      -1.141525       -31.0625
  13   2.0000      -1.070881       -29.1402
  14   2.0000      -1.056259       -28.7423
  15   2.0000      -0.977747       -26.6058
  16   2.0000      -0.901679       -24.5359
  17   2.0000      -0.877452       -23.8767
  18   2.0000      -0.864812       -23.5327
  19   2.0000      -0.861552       -23.4440
  20   2.0000      -0.845323       -23.0024
  21   2.0000      -0.825230       -22.4556
  22   2.0000      -0.814503       -22.1637
  23   2.0000      -0.799543       -21.7567
  24   2.0000      -0.797210       -21.6932
  25   2.0000      -0.780680       -21.2434
  26   2.0000      -0.774146       -21.0656
  27   2.0000      -0.765361       -20.8265
  28   2.0000      -0.749453       -20.3937
  29   2.0000      -0.735076       -20.0024
  30   2.0000      -0.723603       -19.6902
  31   2.0000      -0.720664       -19.6103
  32   0.0000      -0.029496        -0.8026
  33   0.0000      -0.023501        -0.6395
  34   0.0000      -0.017954        -0.4886
  35   0.0000      -0.015506        -0.4220
  36   0.0000      -0.009416        -0.2562

MULLIKEN ATOMIC CHARGES
-----------------------
   0 C :   -0.423766
   1 C :   -0.017005
   2 H :    0.076000
   3 C :   -0.267441
   4 C :   -0.182782
   5 C :   -0.233329
   6 C :   -0.224393
   7 C :    0.033997
   8 H :    0.078749
   9 C :   -0.473433
  10 H :    0.127427
  11 H :    0.128120
  12 H :    0.127779
  13 H :    0.108612
  14 H :    0.109349
  15 H :    0.109117
  16 H :    0.095328
  17 H :    0.108121
  18 H :    0.111609
  19 H :    0.110770
  20 H :    0.103499
  21 H :    0.135098
  22 H :    0.127407
  23 H :    0.131167
Sum of atomic charges:    0.0000000

LOEWDIN ATOMIC CHARGES
----------------------
   0 C :   -0.288047
   1 C :   -0.260687
   2 H :    0.152504
   3 C :   -0.238639
   4 C :   -0.261721
   5 C :   -0.262376
   6 C :   -0.239502
   7 C :   -0.258086
   8 H :    0.149496
   9 C :   -0.285639
  10 H :    0.120580
  11 H :    0.119544
  12 H :    0.120318
  13 H :    0.136181
  14 H :    0.134592
  15 H :    0.130829
  16 H :    0.134634
  17 H :    0.134339
  18 H :    0.131504
  19 H :    0.133241
  20 H :    0.136709
  21 H :    0.119991
  22 H :    0.121101
  23 H :    0.119133

  Mayer bond orders larger than 0.100000
B(  0-C ,  1-C ) :   0.9458 B(  0-C , 10-H ) :   0.9837 B(  0-C , 11-H ) :   0.9830
B(  0-C , 12-H ) :   0.9778 B(  1-C ,  2-H ) :   0.9685 B(  1-C ,  3-C ) :   0.9773
B(  1-C ,  7-C ) :   0.9737 B(  3-C ,  4-C ) :   0.9908 B(  3-C , 13-H ) :   0.9732
B(  3-C , 14-H ) :   0.9742 B(  4-C ,  5-C ) :   0.9847 B(  4-C , 15-H ) :   0.9762
B(  4-C , 16-H ) :   0.9736 B(  5-C ,  6-C ) :   0.9805 B(  5-C , 17-H ) :   0.9796
B(  5-C , 18-H ) :   0.9751 B(  6-C ,  7-C ) :   0.9761 B(  6-C , 19-H ) :   0.9792
B(  6-C , 20-H ) :   0.9764 B(  7-C ,  8-H ) :   0.9667 B(  7-C ,  9-C ) :   0.9346
B(  9-C , 21-H ) :   0.9833 B(  9-C , 22-H ) :   0.9811 B(  9-C , 23-H ) :   0.9762

FINAL SINGLE POINT ENERGY      -314.515313670251

DIPOLE MOMENT
-------------

Method             : SCF
Type of density    : Electron Density
Multiplicity       :   1
Irrep              :   0
Energy             :  -314.5327302024510914 Eh
Relativity type    :
Basis              : AO
                                X                 Y                 Z
Electronic contribution:     -1.511030946      -0.454547415       1.197207756
Nuclear contribution   :      1.489144002       0.448824110      -1.146481305
                        -----------------------------------------
Total Dipole Moment    :     -0.021886944      -0.005723304       0.050726451
                        -----------------------------------------
Magnitude (a.u.)       :      0.055542483
Magnitude (Debye)      :      0.141177772

Rotational constants in cm-1:             0.088521             0.063525             0.045827
Rotational constants in MHz :          2653.798343          1904.420732          1373.858050

                             ****ORCA TERMINATED NORMALLY****
TOTAL RUN TIME: 0 days 0 hours 3 minutes 47 seconds 512 msec
