                         Program Version 6.0.0  -   RELEASE  -
|  1> ! r2scan-3c def2/J RI DEFGRID2 scfconv6 printgap
|  2> %output
|  3>     printlevel normal
|  4> end
|  5> * xyz 0 1
|  6> C -1.919545115 -0.2306584807 0.5348300886
|  7> C -1.1881998985 -0.0611900089 -0.7905415274
|  8> C 0.1120927251 0.7123893473 -0.636658196
|  9> S 1.3453800977 -0.1565069575 0.4039882411
| 10> H -1.2863452067 -0.7482708882 1.2525263602
| 11> H -2.1849328553 0.7391368014 0.9502421512
| 12> H -2.8288539205 -0.8088620094 0.3960007607
| 13> H -1.8211375257 0.4861078953 -1.4928824197
| 14> H -0.9780158143 -1.0424710361 -1.2217568428
| 15> H 0.581397829 0.9050996043 -1.6006038271
| 16> H -0.0544637339 1.6596545448 -0.1241485976
| 17> H 1.4694155284 -1.2227806036 -0.3775447331
| 18> *
| 19>
| 20>                          ****END OF INPUT****

CARTESIAN COORDINATES (ANGSTROEM)
---------------------------------
  C     -1.919545   -0.230658    0.534830
  C     -1.188200   -0.061190   -0.790542
  C      0.112093    0.712389   -0.636658
  S      1.345380   -0.156507    0.403988
  H     -1.286345   -0.748271    1.252526
  H     -2.184933    0.739137    0.950242
  H     -2.828854   -0.808862    0.396001
  H     -1.821138    0.486108   -1.492882
  H     -0.978016   -1.042471   -1.221757
  H      0.581398    0.905100   -1.600604
  H     -0.054464    1.659655   -0.124149
  H      1.469416   -1.222781   -0.377545

 Total Charge           Charge          ....    0
 Multiplicity           Mult            ....    1
 Number of Electrons    NEL             ....   42
 Basis Dimension        Dim             ....  124

ORBITAL ENERGIES
----------------

  NO   OCC          E(Eh)            E(eV)
   0   2.0000     -88.549345     -2409.5502
   1   2.0000     -10.065943      -273.9082
   2   2.0000     -10.037592      -273.1368
   3   2.0000     -10.017333      -272.5855
   4   2.0000      -7.844618      -213.4629
   5   2.0000      -5.791835      -157.6039
   6   2.0000      -5.788038      -157.5005
   7   2.0000      -5.781624      -157.3260
   8   2.0000      -0.780115       -21.2280
   9   2.0000      -0.701834       -19.0979
  10   2.0000      -0.624359       -16.9897
  11   2.0000      -0.553729       -15.0677
  12   2.0000      -0.433938       -11.8081
  13   2.0000      -0.428817       -11.6687
  14   2.0000      -0.402371       -10.9491
  15   2.0000      -0.356100        -9.6900
  16   2.0000      -0.339318        -9.2333
  17   2.0000      -0.325281        -8.8514
  18   2.0000      -0.314008        -8.5446
  19   2.0000      -0.288041        -7.8380
  20   2.0000      -0.209204        -5.6927
  21   0.0000       0.014499         0.3945
  22   0.0000       0.056042         1.5250
  23   0.0000       0.098186         2.6718
  24   0.0000       0.123735         3.3670
  25   0.0000       0.132181         3.5968

MULLIKEN ATOMIC CHARGES
-----------------------
   0 C :   -0.473008
   1 C :   -0.200740
   2 C :   -0.231534
   3 S :   -0.268367
   4 H :    0.169976
   5 H :    0.139225
   6 H :    0.145812
   7 H :    0.137462
   8 H :    0.133929
   9 H :    0.169508
  10 H :    0.145685
  11 H :    0.132053
Sum of atomic charges:    0.0000000

LOEWDIN ATOMIC CHARGES
----------------------
   0 C :   -0.432265
   1 C :   -0.326027
   2 C :   -0.363842
   3 S :   -0.102477
   4 H :    0.160622
   5 H :    0.150070
   6 H :    0.151098
   7 H :    0.154964
   8 H :    0.152614
   9 H :    0.161461
  10 H :    0.168258
  11 H :    0.125523

  Mayer bond orders larger than 0.100000
B(  0-C ,  1-C ) :   0.9118 B(  0-C ,  4-H ) :   0.9691 B(  0-C ,  5-H ) :   0.9798
B(  0-C ,  6-H ) :   0.9709 B(  1-C ,  2-C ) :   0.8974 B(  1-C ,  7-H ) :   0.9536
B(  1-C ,  8-H ) :   0.9718 B(  2-C ,  3-S ) :   0.9717 B(  2-C ,  9-H ) :   0.9553
B(  2-C , 10-H ) :   0.9609 B(  3-S , 11-H ) :   0.9608

Dispersion correction           -0.002661774
FINAL SINGLE POINT ENERGY      -517.256691168046

DIPOLE MOMENT
-------------

Method             : SCF
Type of density    : Electron Density
Multiplicity       :   1
Irrep              :   0
Energy             :  -517.2631106312402380 Eh
Relativity type    :
Basis              : AO
                                X                 Y                 Z
Electronic contribution:      6.242027966       0.042744287       1.577488852
Nuclear contribution   :     -6.702003226      -0.025937002      -2.092501359
                        -----------------------------------------
Total Dipole Moment    :     -0.459975260       0.016807285      -0.515012508
                        -----------------------------------------
Magnitude (a.u.)       :      0.690722526
Magnitude (Debye)      :      1.755677135

Rotational constants in cm-1:             0.379421             0.110215             0.095733
Rotational constants in MHz :         11374.754445          3304.147594          2870.008703

                             ****ORCA TERMINATED NORMALLY****
TOTAL RUN TIME: 0 days 0 hours 0 minutes 10 seconds 244 msec
