                         Program Version 6.0.0  -   RELEASE  -
|  1> ! r2scan-3c def2/J RI DEFGRID2 scfconv6 printgap
|  2> %output
|  3>     printlevel normal
|  4> end
|  5> %cpcm
|  6>     smd true
|  7>     smdsolvent "water"
|  8> end
|  9> * xyz 0 1
| 10> C -1.919545115 -0.2306584807 0.5348300886
| 11> C -1.1881998985 -0.0611900089 -0.7905415274
| 12> C 0.1120927251 0.7123893473 -0.636658196
| 13> S 1.3453800977 -0.1565069575 0.4039882411
| 14> H -1.2863452067 -0.7482708882 1.2525263602
| 15> H -2.1849328553 0.7391368014 0.9502421512
| 16> H -2.8288539205 -0.8088620094 0.3960007607
| 17> H -1.8211375257 0.4861078953 -1.4928824197
| 18> H -0.9780158143 -1.0424710361 -1.2217568428
| 19> H 0.581397829 0.9050996043 -1.6006038271
| 20> H -0.0544637339 1.6596545448 -0.1241485976
| 21> H 1.4694155284 -1.2227806036 -0.3775447331
| 22> *
| 23>
| 24>                          ****END OF INPUT****

CARTESIAN COORDINATES (ANGSTROEM)
---------------------------------
  C     -1.919545   -0.230658    0.534830
  C     -1.188200   -0.061190   -0.790542
  C      0.112093    0.712389   -0.636658
  S      1.345380   -0.156507    0.403988
  H     -1.286345   -0.748271    1.252526
  H     -2.184933    0.739137    0.950242
  H     -2.828854   -0.808862    0.396001
  H     -1.821138    0.486108   -1.492882
  H     -0.978016   -1.042471   -1.221757
  H      0.581398    0.905100   -1.600604
  H     -0.054464    1.659655   -0.124149
  H      1.469416   -1.222781   -0.377545

 Total Charge           Charge          ....    0
 Multiplicity           Mult            ....    1
 Number of Electrons    NEL             ....   42
 Basis Dimension        Dim             ....  124

ORBITAL ENERGIES
----------------

  NO   OCC          E(Eh)            E(eV)
   0   2.0000     -88.546799     -2409.4809
   1   2.0000     -10.054441      -273.5953
   2   2.0000     -10.024658      -272.7848
   3   2.0000     -10.008208      -272.3372
   4   2.0000      -7.842212      -213.3974
   5   2.0000      -5.789190      -157.5319
   6   2.0000      -5.785496      -157.4314
   7   2.0000      -5.779628      -157.2717
   8   2.0000      -0.770250       -20.9596
   9   2.0000      -0.694496       -18.8982
  10   2.0000      -0.615984       -16.7618
  11   2.0000      -0.542704       -14.7677
  12   2.0000      -0.422411       -11.4944
  13   2.0000      -0.418205       -11.3799
  14   2.0000      -0.393381       -10.7044
  15   2.0000      -0.346636        -9.4324
  16   2.0000      -0.332485        -9.0474
  17   2.0000      -0.315128        -8.5751
  18   2.0000      -0.301504        -8.2043
  19   2.0000      -0.282108        -7.6765
  20   2.0000      -0.208839        -5.6828
  21   0.0000       0.018784         0.5112
  22   0.0000       0.062794         1.7087
  23   0.0000       0.110438         3.0052
  24   0.0000       0.130560         3.5527
  25   0.0000       0.143032         3.8921

MULLIKEN ATOMIC CHARGES
-----------------------
   0 C :   -0.513752
   1 C :   -0.209345
   2 C :   -0.229684
   3 S :   -0.348709
   4 H :    0.161832
   5 H :    0.155598
   6 H :    0.158040
   7 H :    0.153182
   8 H :    0.150588
   9 H :    0.185263
  10 H :    0.167153
  11 H :    0.169834
Sum of atomic charges:    0.0000000

LOEWDIN ATOMIC CHARGES
----------------------
   0 C :   -0.440829
   1 C :   -0.324322
   2 C :   -0.358414
   3 S :   -0.140628
   4 H :    0.155395
   5 H :    0.154111
   6 H :    0.154071
   7 H :    0.161435
   8 H :    0.157268
   9 H :    0.168241
  10 H :    0.175345
  11 H :    0.138329

  Mayer bond orders larger than 0.100000
B(  0-C ,  1-C ) :   0.8992 B(  0-C ,  4-H ) :   0.9723 B(  0-C ,  5-H ) :   0.9771
B(  0-C ,  6-H ) :   0.9689 B(  1-C ,  2-C ) :   0.8960 B(  1-C ,  7-H ) :   0.9513
B(  1-C ,  8-H ) :   0.9727 B(  2-C ,  3-S ) :   0.9585 B(  2-C ,  9-H ) :   0.9504
B(  2-C , 10-H ) :   0.9556 B(  3-S , 11-H ) :   0.9543

Dispersion correction           -0.002661774
FINAL SINGLE POINT ENERGY      -517.258323398189

DIPOLE MOMENT
-------------

Method             : SCF
Type of density    : Electron Density
Multiplicity       :   1
Irrep              :   0
Energy             :  -517.2647428613834109 Eh
Relativity type    :
Basis              : AO
                                X                 Y                 Z
Electronic contribution:      6.090646151       0.078696327       1.359515220
Nuclear contribution   :     -6.702003226      -0.025937002      -2.092501359
                        -----------------------------------------
Total Dipole Moment    :     -0.611357075       0.052759325      -0.732986140
                        -----------------------------------------
Magnitude (a.u.)       :      0.955933942
Magnitude (Debye)      :      2.429790981

Rotational constants in cm-1:             0.379421             0.110215             0.095733
Rotational constants in MHz :         11374.754445          3304.147594          2870.008703

                             ****ORCA TERMINATED NORMALLY****
TOTAL RUN TIME: 0 days 0 hours 0 minutes 11 seconds 592 msec
