                         Program Version 6.0.0  -   RELEASE  -
|  1> ! wb97x-v def2-tzvp def2/J RIJCOSX DEFGRID2 scfconv7 GCP(DFT/TZ) printgap
|  2> %output
|  3>     printlevel normal
|  4> end
|  5> * xyz 0 1
|  6> C -3.454631860299948 -1.1800492794277848 0.0001338433186654086
|  7> C -2.060308025042043 -0.6242148785123596 -2.803980999477508e-05
|  8> C -1.873145476255577 0.7821708260374504 -4.717596861735799e-05
|  9> C -0.626235534570742 1.3677210285752488 -6.367942880127445e-05
| 10> C 0.5310052686861017 0.527752715226885 -5.777207947186015e-06
| 11> C 1.8491691605778897 1.047240070608763 0.00014751002202632182
| 12> C 2.942140492951086 0.20937373470236742 0.0001797841974257988
| 13> C 2.7676425598695924 -1.1899926266298497 2.6099463766502633e-05
| 14> C 1.5013117590077807 -1.7273951966519432 -0.00010646838656646914
| 15> C 0.35608847432049057 -0.8933941132182999 -8.498238494273485e-05
| 16> C -0.9519943441734025 -1.4391031502325227 -0.00010480316107817908
| 17> C -0.48602286767306824 2.8624703086325964 -0.00012838184285102327
| 18> H -4.010638714789735 -0.8385835818005019 0.8806245401230643
| 19> H -4.011408192542707 -0.8372579058582363 -0.8793447090265587
| 20> H -3.4478563484684717 -2.2726908422498564 -0.0006586711944348241
| 21> H -2.754291907080952 1.4201682098972501 -7.209126315433385e-05
| 22> H 1.9985640009881225 2.121558342203144 0.00027127784714083973
| 23> H 3.9446245612482653 0.625942071671717 0.0003279026147716918
| 24> H 3.636528721142401 -1.8409219604397564 1.807555859541525e-05
| 25> H 1.3588629947356972 -2.8047874163548063 -0.0002112362147415886
| 26> H -1.065461639464476 -2.520503225931367 -0.0001592283270344801
| 27> H 0.06365889992972668 3.213480008567251 0.8806279157124653
| 28> H 0.06475542956056828 3.2133033272768823 -0.8802633127627003
| 29> H -1.4687010024341158 3.3393846300760837 -0.0007851803565241616
| 30> *
| 31>
| 32>                          ****END OF INPUT****

CARTESIAN COORDINATES (ANGSTROEM)
---------------------------------
  C     -3.454632   -1.180049    0.000134
  C     -2.060308   -0.624215   -0.000028
  C     -1.873145    0.782171   -0.000047
  C     -0.626236    1.367721   -0.000064
  C      0.531005    0.527753   -0.000006
  C      1.849169    1.047240    0.000148
  C      2.942140    0.209374    0.000180
  C      2.767643   -1.189993    0.000026
  C      1.501312   -1.727395   -0.000106
  C      0.356088   -0.893394   -0.000085
  C     -0.951994   -1.439103   -0.000105
  C     -0.486023    2.862470   -0.000128
  H     -4.010639   -0.838584    0.880625
  H     -4.011408   -0.837258   -0.879345
  H     -3.447856   -2.272691   -0.000659
  H     -2.754292    1.420168   -0.000072
  H      1.998564    2.121558    0.000271
  H      3.944625    0.625942    0.000328
  H      3.636529   -1.840922    0.000018
  H      1.358863   -2.804787   -0.000211
  H     -1.065462   -2.520503   -0.000159
  H      0.063659    3.213480    0.880628
  H      0.064755    3.213303   -0.880263
  H     -1.468701    3.339385   -0.000785

 Total Charge           Charge          ....    0
 Multiplicity           Mult            ....    1
 Number of Electrons    NEL             ....   84
 Basis Dimension        Dim             ....  444

ORBITAL ENERGIES
----------------

  NO   OCC          E(Eh)            E(eV)
   0   2.0000     -12.061057      -328.1981
   1   2.0000     -12.058242      -328.1214
   2   2.0000     -12.058025      -328.1155
   3   2.0000     -12.055405      -328.0443
   4   2.0000     -12.051046      -327.9256
   5   2.0000     -12.050432      -327.9089
   6   2.0000     -12.049011      -327.8702
   7   2.0000     -12.047779      -327.8367
   8   2.0000     -12.044549      -327.7488
   9   2.0000     -12.044093      -327.7364
  10   2.0000     -12.043433      -327.7185
  11   2.0000     -12.042868      -327.7031
  12   2.0000      -1.400408       -38.1070
  13   2.0000      -1.351918       -36.7876
  14   2.0000      -1.313525       -35.7428
  15   2.0000      -1.279369       -34.8134
  16   2.0000      -1.258753       -34.2524
  17   2.0000      -1.197600       -32.5884
  18   2.0000      -1.191110       -32.4117
  19   2.0000      -1.123634       -30.5756
  20   2.0000      -1.104287       -30.0492
  21   2.0000      -1.065982       -29.0068
  22   2.0000      -0.992906       -27.0183
  23   2.0000      -0.981454       -26.7067
  24   2.0000      -0.963372       -26.2147
  25   2.0000      -0.911793       -24.8111
  26   2.0000      -0.899769       -24.4840
  27   2.0000      -0.891577       -24.2610
  28   2.0000      -0.874155       -23.7870
  29   2.0000      -0.857552       -23.3352
  30   2.0000      -0.843687       -22.9579
  31   2.0000      -0.834330       -22.7033
  32   2.0000      -0.834220       -22.7003
  33   2.0000      -0.831088       -22.6151
  34   2.0000      -0.812069       -22.0975
  35   2.0000      -0.807248       -21.9663
  36   2.0000      -0.791636       -21.5415
  37   2.0000      -0.783277       -21.3140
  38   2.0000      -0.715883       -19.4802
  39   2.0000      -0.672195       -18.2914
  40   2.0000      -0.623168       -16.9573
  41   2.0000      -0.592660       -16.1271
  42   0.0000      -0.279949        -7.6178
  43   0.0000      -0.254305        -6.9200
  44   0.0000      -0.195192        -5.3115
  45   0.0000      -0.130263        -3.5446
  46   0.0000      -0.056504        -1.5376

MULLIKEN ATOMIC CHARGES
-----------------------
   0 C :   -0.371707
   1 C :    0.218373
   2 C :   -0.294672
   3 C :    0.166403
   4 C :    0.057334
   5 C :   -0.229964
   6 C :   -0.137568
   7 C :   -0.101751
   8 C :   -0.208871
   9 C :    0.214100
  10 C :   -0.346579
  11 C :   -0.386045
  12 H :    0.122487
  13 H :    0.122462
  14 H :    0.117378
  15 H :    0.106360
  16 H :    0.127389
  17 H :    0.115212
  18 H :    0.115373
  19 H :    0.110368
  20 H :    0.104675
  21 H :    0.130354
  22 H :    0.130342
  23 H :    0.118544
Sum of atomic charges:   -0.0000000

LOEWDIN ATOMIC CHARGES
----------------------
   0 C :   -0.251047
   1 C :   -0.169062
   2 C :   -0.093069
   3 C :   -0.127666
   4 C :   -0.067250
   5 C :   -0.102493
   6 C :   -0.143289
   7 C :   -0.142364
   8 C :   -0.101326
   9 C :   -0.087923
  10 C :   -0.087846
  11 C :   -0.250456
  12 H :    0.127242
  13 H :    0.127233
  14 H :    0.124245
  15 H :    0.145854
  16 H :    0.146615
  17 H :    0.141081
  18 H :    0.141272
  19 H :    0.144515
  20 H :    0.145259
  21 H :    0.127600
  22 H :    0.127593
  23 H :    0.125283

  Mayer bond orders larger than 0.100000
B(  0-C ,  1-C ) :   0.9066 B(  0-C , 12-H ) :   0.9754 B(  0-C , 13-H ) :   0.9755
B(  0-C , 14-H ) :   0.9986 B(  1-C ,  2-C ) :   1.2131 B(  1-C , 10-C ) :   1.5612
B(  2-C ,  3-C ) :   1.5786 B(  2-C , 15-H ) :   0.9735 B(  3-C ,  4-C ) :   1.1572
B(  3-C , 11-C ) :   0.9081 B(  4-C ,  5-C ) :   1.2193 B(  4-C ,  9-C ) :   1.2859
B(  5-C ,  6-C ) :   1.5929 B(  5-C , 16-H ) :   0.9683 B(  6-C ,  7-C ) :   1.2829
B(  6-C , 17-H ) :   0.9756 B(  7-C ,  8-C ) :   1.5573 B(  7-C , 18-H ) :   0.9779
B(  8-C ,  9-C ) :   1.2250 B(  8-C , 19-H ) :   0.9844 B(  9-C , 10-C ) :   1.2076
B( 10-C , 20-H ) :   0.9666 B( 11-C , 21-H ) :   0.9821 B( 11-C , 22-H ) :   0.9822
B( 11-C , 23-H ) :   0.9895

FINAL SINGLE POINT ENERGY      -464.540946961103

DIPOLE MOMENT
-------------

Method             : SCF
Type of density    : Electron Density
Multiplicity       :   1
Irrep              :   0
Energy             :  -464.5543098433027467 Eh
Relativity type    :
Basis              : AO
                                X                 Y                 Z
Electronic contribution:      5.182517959      -2.545511100      -0.000308242
Nuclear contribution   :     -5.354548314       2.662837692       0.000395857
                        -----------------------------------------
Total Dipole Moment    :     -0.172030355       0.117326592       0.000087615
                        -----------------------------------------
Magnitude (a.u.)       :      0.208230593
Magnitude (Debye)      :      0.529280105

Rotational constants in cm-1:             0.052597             0.027307             0.018095
Rotational constants in MHz :          1576.814143           818.628298           542.480822

                             ****ORCA TERMINATED NORMALLY****
TOTAL RUN TIME: 0 days 0 hours 6 minutes 40 seconds 830 msec
