                         Program Version 6.0.0  -   RELEASE  -
|  1> ! wb97x-v def2-tzvp def2/J RIJCOSX DEFGRID2 scfconv7 GCP(DFT/TZ) printgap
|  2> %output
|  3>     printlevel normal
|  4> end
|  5> %cpcm
|  6>     smd true
|  7>     smdsolvent "water"
|  8> end
|  9> * xyz 0 1
| 10> C -3.454631860299948 -1.1800492794277848 0.0001338433186654086
| 11> C -2.060308025042043 -0.6242148785123596 -2.803980999477508e-05
| 12> C -1.873145476255577 0.7821708260374504 -4.717596861735799e-05
| 13> C -0.626235534570742 1.3677210285752488 -6.367942880127445e-05
| 14> C 0.5310052686861017 0.527752715226885 -5.777207947186015e-06
| 15> C 1.8491691605778897 1.047240070608763 0.00014751002202632182
| 16> C 2.942140492951086 0.20937373470236742 0.0001797841974257988
| 17> C 2.7676425598695924 -1.1899926266298497 2.6099463766502633e-05
| 18> C 1.5013117590077807 -1.7273951966519432 -0.00010646838656646914
| 19> C 0.35608847432049057 -0.8933941132182999 -8.498238494273485e-05
| 20> C -0.9519943441734025 -1.4391031502325227 -0.00010480316107817908
| 21> C -0.48602286767306824 2.8624703086325964 -0.00012838184285102327
| 22> H -4.010638714789735 -0.8385835818005019 0.8806245401230643
| 23> H -4.011408192542707 -0.8372579058582363 -0.8793447090265587
| 24> H -3.4478563484684717 -2.2726908422498564 -0.0006586711944348241
| 25> H -2.754291907080952 1.4201682098972501 -7.209126315433385e-05
| 26> H 1.9985640009881225 2.121558342203144 0.00027127784714083973
| 27> H 3.9446245612482653 0.625942071671717 0.0003279026147716918
| 28> H 3.636528721142401 -1.8409219604397564 1.807555859541525e-05
| 29> H 1.3588629947356972 -2.8047874163548063 -0.0002112362147415886
| 30> H -1.065461639464476 -2.520503225931367 -0.0001592283270344801
| 31> H 0.06365889992972668 3.213480008567251 0.8806279157124653
| 32> H 0.06475542956056828 3.2133033272768823 -0.8802633127627003
| 33> H -1.4687010024341158 3.3393846300760837 -0.0007851803565241616
| 34> *
| 35>
| 36>                          ****END OF INPUT****

CARTESIAN COORDINATES (ANGSTROEM)
---------------------------------
  C     -3.454632   -1.180049    0.000134
  C     -2.060308   -0.624215   -0.000028
  C     -1.873145    0.782171   -0.000047
  C     -0.626236    1.367721   -0.000064
  C      0.531005    0.527753   -0.000006
  C      1.849169    1.047240    0.000148
  C      2.942140    0.209374    0.000180
  C      2.767643   -1.189993    0.000026
  C      1.501312   -1.727395   -0.000106
  C      0.356088   -0.893394   -0.000085
  C     -0.951994   -1.439103   -0.000105
  C     -0.486023    2.862470   -0.000128
  H     -4.010639   -0.838584    0.880625
  H     -4.011408   -0.837258   -0.879345
  H     -3.447856   -2.272691   -0.000659
  H     -2.754292    1.420168   -0.000072
  H      1.998564    2.121558    0.000271
  H      3.944625    0.625942    0.000328
  H      3.636529   -1.840922    0.000018
  H      1.358863   -2.804787   -0.000211
  H     -1.065462   -2.520503   -0.000159
  H      0.063659    3.213480    0.880628
  H      0.064755    3.213303   -0.880263
  H     -1.468701    3.339385   -0.000785

 Total Charge           Charge          ....    0
 Multiplicity           Mult            ....    1
 Number of Electrons    NEL             ....   84
 Basis Dimension        Dim             ....  444

ORBITAL ENERGIES
----------------

  NO   OCC          E(Eh)            E(eV)
   0   2.0000     -12.060438      -328.1812
   1   2.0000     -12.059571      -328.1576
   2   2.0000     -12.057580      -328.1034
   3   2.0000     -12.056400      -328.0713
   4   2.0000     -12.050160      -327.9015
   5   2.0000     -12.049580      -327.8857
   6   2.0000     -12.048180      -327.8476
   7   2.0000     -12.046826      -327.8108
   8   2.0000     -12.041765      -327.6731
   9   2.0000     -12.041063      -327.6540
  10   2.0000     -12.034006      -327.4619
  11   2.0000     -12.033612      -327.4512
  12   2.0000      -1.401644       -38.1407
  13   2.0000      -1.351994       -36.7896
  14   2.0000      -1.312432       -35.7131
  15   2.0000      -1.279002       -34.8034
  16   2.0000      -1.258079       -34.2341
  17   2.0000      -1.191797       -32.4305
  18   2.0000      -1.187041       -32.3010
  19   2.0000      -1.123021       -30.5589
  20   2.0000      -1.102806       -30.0089
  21   2.0000      -1.063725       -28.9454
  22   2.0000      -0.991137       -26.9702
  23   2.0000      -0.980271       -26.6745
  24   2.0000      -0.962500       -26.1910
  25   2.0000      -0.909932       -24.7605
  26   2.0000      -0.896949       -24.4072
  27   2.0000      -0.887542       -24.1512
  28   2.0000      -0.870266       -23.6811
  29   2.0000      -0.853570       -23.2268
  30   2.0000      -0.837170       -22.7805
  31   2.0000      -0.830059       -22.5870
  32   2.0000      -0.825505       -22.4631
  33   2.0000      -0.825063       -22.4511
  34   2.0000      -0.804769       -21.8989
  35   2.0000      -0.800760       -21.7898
  36   2.0000      -0.788332       -21.4516
  37   2.0000      -0.784427       -21.3454
  38   2.0000      -0.716510       -19.4972
  39   2.0000      -0.673850       -18.3364
  40   2.0000      -0.625241       -17.0137
  41   2.0000      -0.593657       -16.1542
  42   0.0000      -0.280700        -7.6382
  43   0.0000      -0.256254        -6.9730
  44   0.0000      -0.196666        -5.3516
  45   0.0000      -0.130202        -3.5430
  46   0.0000      -0.051063        -1.3895

MULLIKEN ATOMIC CHARGES
-----------------------
   0 C :   -0.400845
   1 C :    0.204111
   2 C :   -0.333077
   3 C :    0.135600
   4 C :    0.036284
   5 C :   -0.264644
   6 C :   -0.184241
   7 C :   -0.142323
   8 C :   -0.251841
   9 C :    0.196020
  10 C :   -0.399651
  11 C :   -0.407268
  12 H :    0.140928
  13 H :    0.140918
  14 H :    0.141841
  15 H :    0.150947
  16 H :    0.169640
  17 H :    0.159852
  18 H :    0.160245
  19 H :    0.157436
  20 H :    0.152001
  21 H :    0.146587
  22 H :    0.146589
  23 H :    0.144890
Sum of atomic charges:   -0.0000000

LOEWDIN ATOMIC CHARGES
----------------------
   0 C :   -0.252463
   1 C :   -0.176318
   2 C :   -0.097852
   3 C :   -0.134961
   4 C :   -0.080421
   5 C :   -0.108389
   6 C :   -0.153000
   7 C :   -0.151252
   8 C :   -0.110433
   9 C :   -0.103307
  10 C :   -0.098388
  11 C :   -0.250691
  12 H :    0.132384
  13 H :    0.132376
  14 H :    0.129447
  15 H :    0.156495
  16 H :    0.157103
  17 H :    0.150768
  18 H :    0.151068
  19 H :    0.155186
  20 H :    0.155994
  21 H :    0.132903
  22 H :    0.132898
  23 H :    0.130855

  Mayer bond orders larger than 0.100000
B(  0-C ,  1-C ) :   0.9246 B(  0-C , 12-H ) :   0.9689 B(  0-C , 13-H ) :   0.9690
B(  0-C , 14-H ) :   0.9932 B(  1-C ,  2-C ) :   1.1917 B(  1-C , 10-C ) :   1.5381
B(  2-C ,  3-C ) :   1.5684 B(  2-C , 15-H ) :   0.9855 B(  3-C ,  4-C ) :   1.1490
B(  3-C , 11-C ) :   0.9353 B(  4-C ,  5-C ) :   1.2109 B(  4-C ,  9-C ) :   1.2560
B(  5-C ,  6-C ) :   1.5679 B(  5-C , 16-H ) :   0.9755 B(  6-C ,  7-C ) :   1.2633
B(  6-C , 17-H ) :   0.9803 B(  7-C ,  8-C ) :   1.5365 B(  7-C , 18-H ) :   0.9808
B(  8-C ,  9-C ) :   1.2147 B(  8-C , 19-H ) :   0.9889 B(  9-C , 10-C ) :   1.1899
B( 10-C , 20-H ) :   0.9847 B( 11-C , 21-H ) :   0.9740 B( 11-C , 22-H ) :   0.9741
B( 11-C , 23-H ) :   0.9826

FINAL SINGLE POINT ENERGY      -464.543832842111

DIPOLE MOMENT
-------------

Method             : SCF
Type of density    : Electron Density
Multiplicity       :   1
Irrep              :   0
Energy             :  -464.5571957243107590 Eh
Relativity type    :
Basis              : AO
                                X                 Y                 Z
Electronic contribution:      5.097066523      -2.465739619      -0.000276317
Nuclear contribution   :     -5.354548314       2.662837692       0.000395857
                        -----------------------------------------
Total Dipole Moment    :     -0.257481791       0.197098073       0.000119540
                        -----------------------------------------
Magnitude (a.u.)       :      0.324259984
Magnitude (Debye)      :      0.824203380

Rotational constants in cm-1:             0.052597             0.027307             0.018095
Rotational constants in MHz :          1576.814143           818.628298           542.480822

                             ****ORCA TERMINATED NORMALLY****
TOTAL RUN TIME: 0 days 0 hours 7 minutes 10 seconds 288 msec
