                         Program Version 6.0.0  -   RELEASE  -
|  1> ! pbe def2-sv(p) def2/J RI DEFGRID1 loosescf d4 GCP(DFT/SV(P)) printgap
|  2> %output
|  3>     printlevel normal
|  4> end
|  5> * xyz 0 1
|  6> C 0.4120652379 1.8945505034 0.1877698679
|  7> C 0.5628126689 0.5090848325 0.783427268
|  8> H 1.1052968836 0.5483412344 1.7306967275
|  9> C -0.7568610805 -0.2020067113 1.0175924599
| 10> Cl -1.6765040862 -0.4199150431 -0.5100324749
| 11> Cl 1.5960426047 -0.5092321443 -0.3051163758
| 12> H -0.1484190121 2.5200901121 0.8771280772
| 13> H 1.3875795566 2.3403394409 0.0185360889
| 14> H -0.1209955875 1.8462751092 -0.7581775114
| 15> H -0.6033198379 -1.1987312114 1.4269167899
| 16> H -1.3879325615 0.3903115465 1.678004376
| 17> *
| 18>
| 19>                          ****END OF INPUT****

CARTESIAN COORDINATES (ANGSTROEM)
---------------------------------
  C      0.412065    1.894551    0.187770
  C      0.562813    0.509085    0.783427
  H      1.105297    0.548341    1.730697
  C     -0.756861   -0.202007    1.017592
  Cl    -1.676504   -0.419915   -0.510032
  Cl     1.596043   -0.509232   -0.305116
  H     -0.148419    2.520090    0.877128
  H      1.387580    2.340339    0.018536
  H     -0.120996    1.846275   -0.758178
  H     -0.603320   -1.198731    1.426917
  H     -1.387933    0.390312    1.678004

 Total Charge           Charge          ....    0
 Multiplicity           Mult            ....    1
 Number of Electrons    NEL             ....   58
 Basis Dimension        Dim             ....   90

ORBITAL ENERGIES
----------------

  NO   OCC          E(Eh)            E(eV)
   0   2.0000    -100.625914     -2738.1703
   1   2.0000    -100.620910     -2738.0342
   2   2.0000      -9.965585      -271.1773
   3   2.0000      -9.954692      -270.8809
   4   2.0000      -9.893715      -269.2217
   5   2.0000      -9.161482      -249.2966
   6   2.0000      -9.156623      -249.1644
   7   2.0000      -6.993292      -190.2971
   8   2.0000      -6.988268      -190.1604
   9   2.0000      -6.981188      -189.9678
  10   2.0000      -6.980827      -189.9580
  11   2.0000      -6.976316      -189.8352
  12   2.0000      -6.976187      -189.8317
  13   2.0000      -0.807249       -21.9664
  14   2.0000      -0.754900       -20.5419
  15   2.0000      -0.678071       -18.4512
  16   2.0000      -0.623324       -16.9615
  17   2.0000      -0.524856       -14.2821
  18   2.0000      -0.446707       -12.1555
  19   2.0000      -0.435802       -11.8588
  20   2.0000      -0.405602       -11.0370
  21   2.0000      -0.372717       -10.1422
  22   2.0000      -0.349552        -9.5118
  23   2.0000      -0.340034        -9.2528
  24   2.0000      -0.329516        -8.9666
  25   2.0000      -0.259303        -7.0560
  26   2.0000      -0.256560        -6.9814
  27   2.0000      -0.249412        -6.7869
  28   2.0000      -0.244337        -6.6487
  29   0.0000      -0.013467        -0.3664
  30   0.0000       0.017289         0.4705
  31   0.0000       0.028553         0.7770
  32   0.0000       0.074413         2.0249
  33   0.0000       0.088159         2.3989

MULLIKEN ATOMIC CHARGES
-----------------------
   0 C :   -0.221251
   1 C :   -0.181521
   2 H :    0.133949
   3 C :   -0.118371
   4 Cl:   -0.131004
   5 Cl:   -0.124492
   6 H :    0.106374
   7 H :    0.121975
   8 H :    0.125352
   9 H :    0.148651
  10 H :    0.140339
Sum of atomic charges:   -0.0000000

LOEWDIN ATOMIC CHARGES
----------------------
   0 C :   -0.354005
   1 C :   -0.210956
   2 H :    0.132242
   3 C :   -0.285703
   4 Cl:    0.041550
   5 Cl:    0.033647
   6 H :    0.126793
   7 H :    0.128934
   8 H :    0.126253
   9 H :    0.130402
  10 H :    0.130843

  Mayer bond orders larger than 0.100000
B(  0-C ,  1-C ) :   1.0963 B(  0-C ,  6-H ) :   0.9348 B(  0-C ,  7-H ) :   0.9450
B(  0-C ,  8-H ) :   0.9354 B(  1-C ,  2-H ) :   0.8991 B(  1-C ,  3-C ) :   1.0378
B(  1-C ,  5-Cl) :   1.0366 B(  3-C ,  4-Cl) :   1.0548 B(  3-C ,  9-H ) :   0.9225
B(  3-C , 10-H ) :   0.9146

Dispersion correction           -0.009929094
FINAL SINGLE POINT ENERGY     -1037.364582900054

DIPOLE MOMENT
-------------

Method             : SCF
Type of density    : Electron Density
Multiplicity       :   1
Irrep              :   0
Energy             : -1037.3992269542832219 Eh
Relativity type    :
Basis              : AO
                                X                 Y                 Z
Electronic contribution:     -0.377616416      -6.794360486      -4.866667321
Nuclear contribution   :      0.325847693       7.295157373       5.759728219
                        -----------------------------------------
Total Dipole Moment    :     -0.051768723       0.500796887       0.893060898
                        -----------------------------------------
Magnitude (a.u.)       :      1.025200122
Magnitude (Debye)      :      2.605851620

Rotational constants in cm-1:             0.141464             0.069242             0.056824
Rotational constants in MHz :          4240.970909          2075.824077          1703.551558

                             ****ORCA TERMINATED NORMALLY****
TOTAL RUN TIME: 0 days 0 hours 0 minutes 5 seconds 158 msec
