                         Program Version 6.0.0  -   RELEASE  -
|  1> ! r2scan-3c def2/J RI DEFGRID2 scfconv6 printgap
|  2> %output
|  3>     printlevel normal
|  4> end
|  5> * xyz 0 1
|  6> C -1.8162702757 -1.3585481804 -0.0003899813
|  7> C -0.4797801854 -1.7084216218 0.0005065215
|  8> C 0.4993477833 -0.7285798832 8.65332e-05
|  9> C 0.1296396552 0.611170368 0.0002581674
| 10> C -1.2042897389 0.9691884333 0.0007586427
| 11> C -2.1908815302 -0.0165973272 0.0006044354
| 12> O -3.475430854 0.3856101937 -0.0005237946
| 13> Cl 1.3426187552 1.8495254241 -0.0003645804
| 14> Cl 2.1776416727 -1.1752239298 2.74618e-05
| 15> H -2.5651024506 -2.1345423223 -0.0011436974
| 16> H -0.186774877 -2.7450676976 0.0032447617
| 17> H -1.4953796975 2.0061642441 -0.0013325977
| 18> H -4.0841737361 -0.3708755076 -0.0023351917
| 19> *
| 20>
| 21>                          ****END OF INPUT****

CARTESIAN COORDINATES (ANGSTROEM)
---------------------------------
  C     -1.816270   -1.358548   -0.000390
  C     -0.479780   -1.708422    0.000507
  C      0.499348   -0.728580    0.000087
  C      0.129640    0.611170    0.000258
  C     -1.204290    0.969188    0.000759
  C     -2.190882   -0.016597    0.000604
  O     -3.475431    0.385610   -0.000524
  Cl     1.342619    1.849525   -0.000365
  Cl     2.177642   -1.175224    0.000027
  H     -2.565102   -2.134542   -0.001144
  H     -0.186775   -2.745068    0.003245
  H     -1.495380    2.006164   -0.001333
  H     -4.084174   -0.370876   -0.002335

 Total Charge           Charge          ....    0
 Multiplicity           Mult            ....    1
 Number of Electrons    NEL             ....   82
 Basis Dimension        Dim             ....  212

ORBITAL ENERGIES
----------------

  NO   OCC          E(Eh)            E(eV)
   0   2.0000    -101.226731     -2754.5194
   1   2.0000    -101.223175     -2754.4226
   2   2.0000     -19.006077      -517.1816
   3   2.0000     -10.120901      -275.4037
   4   2.0000     -10.116773      -275.2914
   5   2.0000     -10.107768      -275.0464
   6   2.0000     -10.063856      -273.8514
   7   2.0000     -10.057280      -273.6725
   8   2.0000     -10.056049      -273.6390
   9   2.0000      -9.382455      -255.3096
  10   2.0000      -9.378850      -255.2115
  11   2.0000      -7.128926      -193.9879
  12   2.0000      -7.125333      -193.8902
  13   2.0000      -7.118748      -193.7110
  14   2.0000      -7.117996      -193.6905
  15   2.0000      -7.115030      -193.6098
  16   2.0000      -7.114492      -193.5952
  17   2.0000      -1.053910       -28.6783
  18   2.0000      -0.887898       -24.1609
  19   2.0000      -0.825120       -22.4527
  20   2.0000      -0.810624       -22.0582
  21   2.0000      -0.732277       -19.9263
  22   2.0000      -0.703334       -19.1387
  23   2.0000      -0.612435       -16.6652
  24   2.0000      -0.599139       -16.3034
  25   2.0000      -0.531271       -14.4566
  26   2.0000      -0.486952       -13.2506
  27   2.0000      -0.471090       -12.8190
  28   2.0000      -0.436378       -11.8744
  29   2.0000      -0.420740       -11.4489
  30   2.0000      -0.413756       -11.2589
  31   2.0000      -0.394465       -10.7339
  32   2.0000      -0.374336       -10.1862
  33   2.0000      -0.374210       -10.1828
  34   2.0000      -0.339329        -9.2336
  35   2.0000      -0.324413        -8.8277
  36   2.0000      -0.301854        -8.2139
  37   2.0000      -0.294743        -8.0204
  38   2.0000      -0.279279        -7.5996
  39   2.0000      -0.246319        -6.7027
  40   2.0000      -0.215514        -5.8644
  41   0.0000      -0.057108        -1.5540
  42   0.0000      -0.038494        -1.0475
  43   0.0000      -0.019886        -0.5411
  44   0.0000       0.029749         0.8095
  45   0.0000       0.056190         1.5290

MULLIKEN ATOMIC CHARGES
-----------------------
   0 C :   -0.317758
   1 C :   -0.171599
   2 C :    0.083943
   3 C :    0.167580
   4 C :   -0.373910
   5 C :    0.453052
   6 O :   -0.406635
   7 Cl:   -0.112570
   8 Cl:   -0.124628
   9 H :    0.143189
  10 H :    0.165539
  11 H :    0.174403
  12 H :    0.319393
Sum of atomic charges:   -0.0000000

LOEWDIN ATOMIC CHARGES
----------------------
   0 C :   -0.166607
   1 C :   -0.150931
   2 C :   -0.201103
   3 C :   -0.168990
   4 C :   -0.142861
   5 C :    0.186764
   6 O :   -0.483032
   7 Cl:    0.151715
   8 Cl:    0.136919
   9 H :    0.173150
  10 H :    0.181945
  11 H :    0.193162
  12 H :    0.289869

  Mayer bond orders larger than 0.100000
B(  0-C ,  1-C ) :   1.3958 B(  0-C ,  5-C ) :   1.3128 B(  0-C ,  9-H ) :   0.9339
B(  1-C ,  2-C ) :   1.3690 B(  1-C , 10-H ) :   0.9346 B(  2-C ,  3-C ) :   1.2913
B(  2-C ,  8-Cl) :   1.0305 B(  3-C ,  4-C ) :   1.3292 B(  3-C ,  7-Cl) :   1.0245
B(  4-C ,  5-C ) :   1.3972 B(  4-C ,  6-O ) :   0.1152 B(  4-C , 11-H ) :   0.9411
B(  5-C ,  6-O ) :   0.9167 B(  6-O , 12-H ) :   0.8786

Dispersion correction           -0.005277618
FINAL SINGLE POINT ENERGY     -1226.558215494566

DIPOLE MOMENT
-------------

Method             : SCF
Type of density    : Electron Density
Multiplicity       :   1
Irrep              :   0
Energy             : -1226.5591935011179885 Eh
Relativity type    :
Basis              : AO
                                X                 Y                 Z
Electronic contribution:     11.349878951       3.232734330       0.000020284
Nuclear contribution   :    -12.592669446      -3.943089347      -0.001025132
                        -----------------------------------------
Total Dipole Moment    :     -1.242790495      -0.710355017      -0.001004848
                        -----------------------------------------
Magnitude (a.u.)       :      1.431479471
Magnitude (Debye)      :      3.638531655

Rotational constants in cm-1:             0.062820             0.029487             0.020068
Rotational constants in MHz :          1883.287380           884.000722           601.609774

                             ****ORCA TERMINATED NORMALLY****
TOTAL RUN TIME: 0 days 0 hours 0 minutes 20 seconds 229 msec
