                         Program Version 6.0.0  -   RELEASE  -
|  1> ! r2scan-3c def2/J RI DEFGRID2 scfconv6 printgap
|  2> %output
|  3>     printlevel normal
|  4> end
|  5> %cpcm
|  6>     smd true
|  7>     smdsolvent "water"
|  8> end
|  9> * xyz 0 1
| 10> C -1.8162702757 -1.3585481804 -0.0003899813
| 11> C -0.4797801854 -1.7084216218 0.0005065215
| 12> C 0.4993477833 -0.7285798832 8.65332e-05
| 13> C 0.1296396552 0.611170368 0.0002581674
| 14> C -1.2042897389 0.9691884333 0.0007586427
| 15> C -2.1908815302 -0.0165973272 0.0006044354
| 16> O -3.475430854 0.3856101937 -0.0005237946
| 17> Cl 1.3426187552 1.8495254241 -0.0003645804
| 18> Cl 2.1776416727 -1.1752239298 2.74618e-05
| 19> H -2.5651024506 -2.1345423223 -0.0011436974
| 20> H -0.186774877 -2.7450676976 0.0032447617
| 21> H -1.4953796975 2.0061642441 -0.0013325977
| 22> H -4.0841737361 -0.3708755076 -0.0023351917
| 23> *
| 24>
| 25>                          ****END OF INPUT****

CARTESIAN COORDINATES (ANGSTROEM)
---------------------------------
  C     -1.816270   -1.358548   -0.000390
  C     -0.479780   -1.708422    0.000507
  C      0.499348   -0.728580    0.000087
  C      0.129640    0.611170    0.000258
  C     -1.204290    0.969188    0.000759
  C     -2.190882   -0.016597    0.000604
  O     -3.475431    0.385610   -0.000524
  Cl     1.342619    1.849525   -0.000365
  Cl     2.177642   -1.175224    0.000027
  H     -2.565102   -2.134542   -0.001144
  H     -0.186775   -2.745068    0.003245
  H     -1.495380    2.006164   -0.001333
  H     -4.084174   -0.370876   -0.002335

 Total Charge           Charge          ....    0
 Multiplicity           Mult            ....    1
 Number of Electrons    NEL             ....   82
 Basis Dimension        Dim             ....  212

ORBITAL ENERGIES
----------------

  NO   OCC          E(Eh)            E(eV)
   0   2.0000    -101.230175     -2754.6131
   1   2.0000    -101.226588     -2754.5155
   2   2.0000     -18.991218      -516.7773
   3   2.0000     -10.113538      -275.2034
   4   2.0000     -10.112902      -275.1861
   5   2.0000     -10.104049      -274.9451
   6   2.0000     -10.055270      -273.6178
   7   2.0000     -10.049105      -273.4500
   8   2.0000     -10.045500      -273.3520
   9   2.0000      -9.386089      -255.4085
  10   2.0000      -9.382458      -255.3097
  11   2.0000      -7.132393      -194.0823
  12   2.0000      -7.128758      -193.9834
  13   2.0000      -7.122429      -193.8111
  14   2.0000      -7.121715      -193.7917
  15   2.0000      -7.118710      -193.7099
  16   2.0000      -7.118177      -193.6954
  17   2.0000      -1.039157       -28.2769
  18   2.0000      -0.886880       -24.1332
  19   2.0000      -0.827143       -22.5077
  20   2.0000      -0.806553       -21.9474
  21   2.0000      -0.725549       -19.7432
  22   2.0000      -0.698072       -18.9955
  23   2.0000      -0.602929       -16.4065
  24   2.0000      -0.590254       -16.0616
  25   2.0000      -0.520703       -14.1691
  26   2.0000      -0.480360       -13.0713
  27   2.0000      -0.464814       -12.6482
  28   2.0000      -0.429205       -11.6793
  29   2.0000      -0.412164       -11.2155
  30   2.0000      -0.408713       -11.1217
  31   2.0000      -0.388732       -10.5779
  32   2.0000      -0.370334       -10.0773
  33   2.0000      -0.365797        -9.9538
  34   2.0000      -0.329285        -8.9603
  35   2.0000      -0.327678        -8.9166
  36   2.0000      -0.305160        -8.3038
  37   2.0000      -0.292259        -7.9528
  38   2.0000      -0.283385        -7.7113
  39   2.0000      -0.243349        -6.6219
  40   2.0000      -0.211391        -5.7522
  41   0.0000      -0.051034        -1.3887
  42   0.0000      -0.034096        -0.9278
  43   0.0000      -0.019909        -0.5417
  44   0.0000       0.038636         1.0513
  45   0.0000       0.084052         2.2872

MULLIKEN ATOMIC CHARGES
-----------------------
   0 C :   -0.315222
   1 C :   -0.181713
   2 C :    0.079413
   3 C :    0.150681
   4 C :   -0.378453
   5 C :    0.391337
   6 O :   -0.440067
   7 Cl:   -0.135598
   8 Cl:   -0.148719
   9 H :    0.196147
  10 H :    0.200685
  11 H :    0.203536
  12 H :    0.377973
Sum of atomic charges:   -0.0000000

LOEWDIN ATOMIC CHARGES
----------------------
   0 C :   -0.150338
   1 C :   -0.152756
   2 C :   -0.212612
   3 C :   -0.179697
   4 C :   -0.150510
   5 C :    0.184014
   6 O :   -0.490275
   7 Cl:    0.132512
   8 Cl:    0.117268
   9 H :    0.193742
  10 H :    0.194042
  11 H :    0.201940
  12 H :    0.312668

  Mayer bond orders larger than 0.100000
B(  0-C ,  1-C ) :   1.3814 B(  0-C ,  5-C ) :   1.3208 B(  0-C ,  9-H ) :   0.9438
B(  1-C ,  2-C ) :   1.3224 B(  1-C , 10-H ) :   0.9394 B(  2-C ,  3-C ) :   1.2667
B(  2-C ,  8-Cl) :   1.0127 B(  3-C ,  4-C ) :   1.3241 B(  3-C ,  7-Cl) :   1.0121
B(  4-C ,  5-C ) :   1.3845 B(  4-C ,  6-O ) :   0.1075 B(  4-C , 11-H ) :   0.9313
B(  5-C ,  6-O ) :   0.9413 B(  6-O , 12-H ) :   0.8458

Dispersion correction           -0.005277618
FINAL SINGLE POINT ENERGY     -1226.567666145740

DIPOLE MOMENT
-------------

Method             : SCF
Type of density    : Electron Density
Multiplicity       :   1
Irrep              :   0
Energy             : -1226.5686441522918813 Eh
Relativity type    :
Basis              : AO
                                X                 Y                 Z
Electronic contribution:     10.787128413       2.873254616      -0.000383313
Nuclear contribution   :    -12.592669446      -3.943089347      -0.001025132
                        -----------------------------------------
Total Dipole Moment    :     -1.805541033      -1.069834731      -0.001408445
                        -----------------------------------------
Magnitude (a.u.)       :      2.098696443
Magnitude (Debye)      :      5.334462420

Rotational constants in cm-1:             0.062820             0.029487             0.020068
Rotational constants in MHz :          1883.287380           884.000722           601.609774

                             ****ORCA TERMINATED NORMALLY****
TOTAL RUN TIME: 0 days 0 hours 0 minutes 26 seconds 29 msec
