                         Program Version 6.0.0  -   RELEASE  -
|  1> ! pbe def2-sv(p) def2/J RI DEFGRID1 loosescf d4 GCP(DFT/SV(P)) printgap
|  2> %output
|  3>     printlevel normal
|  4> end
|  5> * xyz 0 1
|  6> C -2.6762966518 0.3899738463 1.2395545289
|  7> C -1.4591184577 0.4147275747 0.3684146996
|  8> C -0.8908499601 1.5380853707 -0.0481779796
|  9> C 0.3309547876 1.6216448006 -0.9103834105
| 10> C 1.0845898018 0.2932958158 -1.0090059623
| 11> H 1.7085446098 0.3166957189 -1.9099393066
| 12> C 0.0553209171 -0.8302202835 -1.1924761304
| 13> C -0.8737175357 -0.9353688678 0.0188648044
| 14> H -0.2949029342 -1.2957667353 0.8897817257
| 15> O -1.9375941992 -1.8427370424 -0.2291323319
| 16> C 2.0013074201 -0.0142424447 0.1602043412
| 17> C 2.9140222206 -0.9686511335 0.0442483092
| 18> C 1.866660697 0.77473221 1.426392848
| 19> H -3.034349809 1.3968942637 1.4343185546
| 20> H -2.4474906515 -0.0993141842 2.1859382733
| 21> H -3.4610880551 -0.1874416215 0.7546965032
| 22> H -1.3294121185 2.4879781086 0.2280994468
| 23> H 0.015531079 1.9207240366 -1.9159017215
| 24> H 0.9880830694 2.4108312481 -0.5415481766
| 25> H -0.5579694291 -0.6190381466 -2.071474539
| 26> H 0.56622748 -1.7828033834 -1.3464867365
| 27> H -1.5657578329 -2.7046511206 -0.4558791712
| 28> H 3.5719511132 -1.2300941328 0.8554214882
| 29> H 3.0440032499 -1.5277227381 -0.8675917627
| 30> H 2.4264609716 0.3002154039 2.2280705835
| 31> H 2.2640559969 1.7791677862 1.2851964596
| 32> H 0.8246212063 0.8680993096 1.7210291576
| 33> *
| 34>
| 35>                          ****END OF INPUT****

CARTESIAN COORDINATES (ANGSTROEM)
---------------------------------
  C     -2.676297    0.389974    1.239555
  C     -1.459118    0.414728    0.368415
  C     -0.890850    1.538085   -0.048178
  C      0.330955    1.621645   -0.910383
  C      1.084590    0.293296   -1.009006
  H      1.708545    0.316696   -1.909939
  C      0.055321   -0.830220   -1.192476
  C     -0.873718   -0.935369    0.018865
  H     -0.294903   -1.295767    0.889782
  O     -1.937594   -1.842737   -0.229132
  C      2.001307   -0.014242    0.160204
  C      2.914022   -0.968651    0.044248
  C      1.866661    0.774732    1.426393
  H     -3.034350    1.396894    1.434319
  H     -2.447491   -0.099314    2.185938
  H     -3.461088   -0.187442    0.754697
  H     -1.329412    2.487978    0.228099
  H      0.015531    1.920724   -1.915902
  H      0.988083    2.410831   -0.541548
  H     -0.557969   -0.619038   -2.071475
  H      0.566227   -1.782803   -1.346487
  H     -1.565758   -2.704651   -0.455879
  H      3.571951   -1.230094    0.855421
  H      3.044003   -1.527723   -0.867592
  H      2.426461    0.300215    2.228071
  H      2.264056    1.779168    1.285196
  H      0.824621    0.868099    1.721029

 Total Charge           Charge          ....    0
 Multiplicity           Mult            ....    1
 Number of Electrons    NEL             ....   84
 Basis Dimension        Dim             ....  186

ORBITAL ENERGIES
----------------

  NO   OCC          E(Eh)            E(eV)
   0   2.0000     -18.742179      -510.0006
   1   2.0000      -9.937155      -270.4037
   2   2.0000      -9.900357      -269.4024
   3   2.0000      -9.899385      -269.3760
   4   2.0000      -9.889915      -269.1183
   5   2.0000      -9.889440      -269.1053
   6   2.0000      -9.885331      -268.9935
   7   2.0000      -9.880653      -268.8662
   8   2.0000      -9.876944      -268.7653
   9   2.0000      -9.869953      -268.5751
  10   2.0000      -9.866346      -268.4769
  11   2.0000      -0.919629       -25.0244
  12   2.0000      -0.767356       -20.8808
  13   2.0000      -0.717592       -19.5267
  14   2.0000      -0.676580       -18.4107
  15   2.0000      -0.659879       -17.9562
  16   2.0000      -0.614825       -16.7302
  17   2.0000      -0.599313       -16.3081
  18   2.0000      -0.556401       -15.1405
  19   2.0000      -0.536397       -14.5961
  20   2.0000      -0.479140       -13.0381
  21   2.0000      -0.461917       -12.5694
  22   2.0000      -0.444972       -12.1083
  23   2.0000      -0.419836       -11.4243
  24   2.0000      -0.411056       -11.1854
  25   2.0000      -0.400637       -10.9019
  26   2.0000      -0.384293       -10.4571
  27   2.0000      -0.370594       -10.0844
  28   2.0000      -0.361063        -9.8250
  29   2.0000      -0.355563        -9.6754
  30   2.0000      -0.351946        -9.5769
  31   2.0000      -0.342439        -9.3182
  32   2.0000      -0.333914        -9.0863
  33   2.0000      -0.326810        -8.8929
  34   2.0000      -0.316298        -8.6069
  35   2.0000      -0.307829        -8.3764
  36   2.0000      -0.286481        -7.7955
  37   2.0000      -0.279957        -7.6180
  38   2.0000      -0.256714        -6.9855
  39   2.0000      -0.223495        -6.0816
  40   2.0000      -0.213859        -5.8194
  41   2.0000      -0.196569        -5.3489
  42   0.0000      -0.017075        -0.4646
  43   0.0000      -0.010049        -0.2735
  44   0.0000       0.032772         0.8918
  45   0.0000       0.040021         1.0890
  46   0.0000       0.057509         1.5649

MULLIKEN ATOMIC CHARGES
-----------------------
   0 C :   -0.197949
   1 C :   -0.065404
   2 C :   -0.221646
   3 C :   -0.025906
   4 C :   -0.145060
   5 H :    0.072002
   6 C :   -0.112149
   7 C :    0.080300
   8 H :    0.075148
   9 O :   -0.421195
  10 C :   -0.066258
  11 C :   -0.242616
  12 C :   -0.214151
  13 H :    0.091289
  14 H :    0.097993
  15 H :    0.122979
  16 H :    0.043369
  17 H :    0.095112
  18 H :    0.084342
  19 H :    0.084516
  20 H :    0.068345
  21 H :    0.297826
  22 H :    0.082326
  23 H :    0.083340
  24 H :    0.096415
  25 H :    0.111036
  26 H :    0.125993
Sum of atomic charges:    0.0000000

LOEWDIN ATOMIC CHARGES
----------------------
   0 C :   -0.321671
   1 C :   -0.068797
   2 C :   -0.151414
   3 C :   -0.212474
   4 C :   -0.129957
   5 H :    0.127224
   6 C :   -0.216857
   7 C :   -0.041040
   8 H :    0.105760
   9 O :   -0.326106
  10 C :   -0.049395
  11 C :   -0.270458
  12 C :   -0.329145
  13 H :    0.119338
  14 H :    0.126651
  15 H :    0.134887
  16 H :    0.117048
  17 H :    0.130777
  18 H :    0.122302
  19 H :    0.119998
  20 H :    0.110635
  21 H :    0.284460
  22 H :    0.116553
  23 H :    0.114149
  24 H :    0.124639
  25 H :    0.131058
  26 H :    0.131836

  Mayer bond orders larger than 0.100000
B(  0-C ,  1-C ) :   1.1289 B(  0-C , 13-H ) :   0.9417 B(  0-C , 14-H ) :   0.9286
B(  0-C , 15-H ) :   0.9213 B(  1-C ,  2-C ) :   1.9052 B(  1-C ,  7-C ) :   0.9957
B(  2-C ,  3-C ) :   1.0435 B(  2-C , 16-H ) :   0.9224 B(  3-C ,  4-C ) :   1.1006
B(  3-C , 17-H ) :   0.8845 B(  3-C , 18-H ) :   0.8986 B(  4-C ,  5-H ) :   0.8745
B(  4-C ,  6-C ) :   1.0482 B(  4-C , 10-C ) :   1.0004 B(  6-C ,  7-C ) :   1.0977
B(  6-C , 19-H ) :   0.9044 B(  6-C , 20-H ) :   0.9036 B(  7-C ,  8-H ) :   0.8697
B(  7-C ,  9-O ) :   1.0734 B(  9-O , 21-H ) :   0.8498 B( 10-C , 11-C ) :   2.0253
B( 10-C , 12-C ) :   1.1516 B( 11-C , 22-H ) :   0.9077 B( 11-C , 23-H ) :   0.9114
B( 12-C , 24-H ) :   0.9336 B( 12-C , 25-H ) :   0.9163 B( 12-C , 26-H ) :   0.9142

Dispersion correction           -0.029896574
FINAL SINGLE POINT ENERGY      -464.788943898754

DIPOLE MOMENT
-------------

Method             : SCF
Type of density    : Electron Density
Multiplicity       :   1
Irrep              :   0
Energy             :  -464.8780303227239301 Eh
Relativity type    :
Basis              : AO
                                X                 Y                 Z
Electronic contribution:     -2.170886640      -1.969148954      -2.385882028
Nuclear contribution   :      2.521681058       1.880693017       2.317373709
                        -----------------------------------------
Total Dipole Moment    :      0.350794418      -0.088455937      -0.068508319
                        -----------------------------------------
Magnitude (a.u.)       :      0.368204517
Magnitude (Debye)      :      0.935901504

Rotational constants in cm-1:             0.054285             0.028993             0.025115
Rotational constants in MHz :          1627.415814           869.183783           752.924435

                             ****ORCA TERMINATED NORMALLY****
TOTAL RUN TIME: 0 days 0 hours 0 minutes 12 seconds 760 msec
