                         Program Version 6.0.0  -   RELEASE  -
|  1> ! wb97x-v def2-tzvp def2/J RIJCOSX DEFGRID2 scfconv7 GCP(DFT/TZ) printgap
|  2> %output
|  3>     printlevel normal
|  4> end
|  5> * xyz 0 1
|  6> C 0.8309813333409429 -1.846400614315895 8.334310246774154e-05
|  7> C 1.869283626387273 -0.9224421787859867 5.142756249213362e-05
|  8> C 1.5697997117631273 0.44014558800547826 8.672594816367606e-06
|  9> C 0.2458445941272974 0.8815109445806701 8.153941299968479e-07
| 10> C -0.7593833431941748 -0.07361675770691171 3.618751493073227e-05
| 11> C -0.5008870214064749 -1.4389699955732258 7.675191679157255e-05
| 12> Cl -2.435680071471366 0.47573598499420894 1.3802451206351847e-05
| 13> O 2.5442210204173388 1.4063367501660164 -2.2251723450038314e-05
| 14> H 1.0607984235037058 -2.9068570694026623 0.00011754712052053766
| 15> H 2.9049220599923413 -1.2481117832694457 6.797383678488313e-05
| 16> H 0.024562450781461583 1.9422383564512389 -3.131180780795131e-05
| 17> H -1.308188727106069 -2.160898444051156 0.00010771293850884661
| 18> H 3.413258736216347 0.9797736136482116 -3.141584207902981e-05
| 19> *
| 20>
| 21>                          ****END OF INPUT****

CARTESIAN COORDINATES (ANGSTROEM)
---------------------------------
  C      0.830981   -1.846401    0.000083
  C      1.869284   -0.922442    0.000051
  C      1.569800    0.440146    0.000009
  C      0.245845    0.881511    0.000001
  C     -0.759383   -0.073617    0.000036
  C     -0.500887   -1.438970    0.000077
  Cl    -2.435680    0.475736    0.000014
  O      2.544221    1.406337   -0.000022
  H      1.060798   -2.906857    0.000118
  H      2.904922   -1.248112    0.000068
  H      0.024562    1.942238   -0.000031
  H     -1.308189   -2.160898    0.000108
  H      3.413259    0.979774   -0.000031

 Total Charge           Charge          ....    0
 Multiplicity           Mult            ....    1
 Number of Electrons    NEL             ....   66
 Basis Dimension        Dim             ....  284

ORBITAL ENERGIES
----------------

  NO   OCC          E(Eh)            E(eV)
   0   2.0000    -107.142825     -2915.5045
   1   2.0000     -21.715906      -590.9199
   2   2.0000     -12.130552      -330.0891
   3   2.0000     -12.123113      -329.8867
   4   2.0000     -12.072125      -328.4992
   5   2.0000     -12.064125      -328.2815
   6   2.0000     -12.062696      -328.2426
   7   2.0000     -12.060979      -328.1959
   8   2.0000     -11.295913      -307.3774
   9   2.0000      -9.087400      -247.2807
  10   2.0000      -9.084825      -247.2107
  11   2.0000      -9.084774      -247.2093
  12   2.0000      -1.730481       -47.0888
  13   2.0000      -1.432855       -38.9900
  14   2.0000      -1.382629       -37.6232
  15   2.0000      -1.298984       -35.3472
  16   2.0000      -1.281220       -34.8638
  17   2.0000      -1.172329       -31.9007
  18   2.0000      -1.133991       -30.8575
  19   2.0000      -1.069279       -29.0966
  20   2.0000      -1.022073       -27.8120
  21   2.0000      -0.970131       -26.3986
  22   2.0000      -0.960684       -26.1415
  23   2.0000      -0.959196       -26.1010
  24   2.0000      -0.928860       -25.2756
  25   2.0000      -0.899173       -24.4677
  26   2.0000      -0.856878       -23.3168
  27   2.0000      -0.838219       -22.8091
  28   2.0000      -0.824630       -22.4393
  29   2.0000      -0.789344       -21.4791
  30   2.0000      -0.771290       -20.9879
  31   2.0000      -0.659807       -17.9543
  32   2.0000      -0.652388       -17.7524
  33   0.0000      -0.268812        -7.3147
  34   0.0000      -0.266286        -7.2460
  35   0.0000      -0.258382        -7.0309
  36   0.0000      -0.145992        -3.9726
  37   0.0000      -0.089703        -2.4409

MULLIKEN ATOMIC CHARGES
-----------------------
   0 C :   -0.111657
   1 C :   -0.211468
   2 C :    0.264883
   3 C :   -0.260566
   4 C :    0.179333
   5 C :   -0.207003
   6 Cl:   -0.101287
   7 O :   -0.384327
   8 H :    0.126659
   9 H :    0.115142
  10 H :    0.141485
  11 H :    0.133255
  12 H :    0.315553
Sum of atomic charges:    0.0000000

LOEWDIN ATOMIC CHARGES
----------------------
   0 C :   -0.127665
   1 C :   -0.147129
   2 C :   -0.257367
   3 C :   -0.122637
   4 C :   -0.398090
   5 C :   -0.160645
   6 Cl:    0.363930
   7 O :    0.074196
   8 H :    0.146420
   9 H :    0.141449
  10 H :    0.153410
  11 H :    0.146196
  12 H :    0.187931

  Mayer bond orders larger than 0.100000
B(  0-C ,  1-C ) :   1.4333 B(  0-C ,  5-C ) :   1.4241 B(  0-C ,  8-H ) :   0.9589
B(  1-C ,  2-C ) :   1.3692 B(  1-C ,  9-H ) :   0.9570 B(  2-C ,  3-C ) :   1.3816
B(  2-C ,  7-O ) :   1.1474 B(  3-C ,  4-C ) :   1.4082 B(  3-C , 10-H ) :   0.9674
B(  4-C ,  5-C ) :   1.3984 B(  4-C ,  6-Cl) :   0.9823 B(  5-C , 11-H ) :   0.9670
B(  7-O , 12-H ) :   0.8879

FINAL SINGLE POINT ENERGY      -767.033452016756

DIPOLE MOMENT
-------------

Method             : SCF
Type of density    : Electron Density
Multiplicity       :   1
Irrep              :   0
Energy             :  -767.0400004530562228 Eh
Relativity type    :
Basis              : AO
                                X                 Y                 Z
Electronic contribution:     -7.997811907       3.190231286      -0.000097151
Nuclear contribution   :      9.035785739      -3.812117784       0.000107010
                        -----------------------------------------
Total Dipole Moment    :      1.037973832      -0.621886498       0.000009860
                        -----------------------------------------
Magnitude (a.u.)       :      1.210013427
Magnitude (Debye)      :      3.075609708

Rotational constants in cm-1:             0.114712             0.039427             0.029342
Rotational constants in MHz :          3438.982738          1182.004158           879.658824

                             ****ORCA TERMINATED NORMALLY****
TOTAL RUN TIME: 0 days 0 hours 2 minutes 23 seconds 451 msec
