                         Program Version 6.0.0  -   RELEASE  -
|  1> ! wb97x-v def2-tzvp def2/J RIJCOSX DEFGRID2 scfconv7 GCP(DFT/TZ) printgap
|  2> %output
|  3>     printlevel normal
|  4> end
|  5> %cpcm
|  6>     smd true
|  7>     smdsolvent "water"
|  8> end
|  9> * xyz 0 1
| 10> C 0.8309813333409429 -1.846400614315895 8.334310246774154e-05
| 11> C 1.869283626387273 -0.9224421787859867 5.142756249213362e-05
| 12> C 1.5697997117631273 0.44014558800547826 8.672594816367606e-06
| 13> C 0.2458445941272974 0.8815109445806701 8.153941299968479e-07
| 14> C -0.7593833431941748 -0.07361675770691171 3.618751493073227e-05
| 15> C -0.5008870214064749 -1.4389699955732258 7.675191679157255e-05
| 16> Cl -2.435680071471366 0.47573598499420894 1.3802451206351847e-05
| 17> O 2.5442210204173388 1.4063367501660164 -2.2251723450038314e-05
| 18> H 1.0607984235037058 -2.9068570694026623 0.00011754712052053766
| 19> H 2.9049220599923413 -1.2481117832694457 6.797383678488313e-05
| 20> H 0.024562450781461583 1.9422383564512389 -3.131180780795131e-05
| 21> H -1.308188727106069 -2.160898444051156 0.00010771293850884661
| 22> H 3.413258736216347 0.9797736136482116 -3.141584207902981e-05
| 23> *
| 24>
| 25>                          ****END OF INPUT****

CARTESIAN COORDINATES (ANGSTROEM)
---------------------------------
  C      0.830981   -1.846401    0.000083
  C      1.869284   -0.922442    0.000051
  C      1.569800    0.440146    0.000009
  C      0.245845    0.881511    0.000001
  C     -0.759383   -0.073617    0.000036
  C     -0.500887   -1.438970    0.000077
  Cl    -2.435680    0.475736    0.000014
  O      2.544221    1.406337   -0.000022
  H      1.060798   -2.906857    0.000118
  H      2.904922   -1.248112    0.000068
  H      0.024562    1.942238   -0.000031
  H     -1.308189   -2.160898    0.000108
  H      3.413259    0.979774   -0.000031

 Total Charge           Charge          ....    0
 Multiplicity           Mult            ....    1
 Number of Electrons    NEL             ....   66
 Basis Dimension        Dim             ....  284

ORBITAL ENERGIES
----------------

  NO   OCC          E(Eh)            E(eV)
   0   2.0000    -107.147225     -2915.6242
   1   2.0000     -21.706397      -590.6611
   2   2.0000     -12.124079      -329.9130
   3   2.0000     -12.120521      -329.8161
   4   2.0000     -12.062618      -328.2405
   5   2.0000     -12.058320      -328.1236
   6   2.0000     -12.055092      -328.0357
   7   2.0000     -12.053371      -327.9889
   8   2.0000     -11.300427      -307.5003
   9   2.0000      -9.091893      -247.4030
  10   2.0000      -9.089387      -247.3348
  11   2.0000      -9.089334      -247.3333
  12   2.0000      -1.721221       -46.8368
  13   2.0000      -1.433801       -39.0157
  14   2.0000      -1.379803       -37.5463
  15   2.0000      -1.292982       -35.1838
  16   2.0000      -1.276125       -34.7251
  17   2.0000      -1.164497       -31.6876
  18   2.0000      -1.127131       -30.6708
  19   2.0000      -1.063052       -28.9271
  20   2.0000      -1.016691       -27.6656
  21   2.0000      -0.963199       -26.2100
  22   2.0000      -0.953772       -25.9534
  23   2.0000      -0.952339       -25.9145
  24   2.0000      -0.925820       -25.1928
  25   2.0000      -0.890807       -24.2401
  26   2.0000      -0.848025       -23.0759
  27   2.0000      -0.829465       -22.5709
  28   2.0000      -0.827465       -22.5165
  29   2.0000      -0.793655       -21.5965
  30   2.0000      -0.769441       -20.9375
  31   2.0000      -0.655510       -17.8373
  32   2.0000      -0.647817       -17.6280
  33   0.0000      -0.269794        -7.3415
  34   0.0000      -0.261455        -7.1146
  35   0.0000      -0.253456        -6.8969
  36   0.0000      -0.137051        -3.7294
  37   0.0000      -0.083954        -2.2845

MULLIKEN ATOMIC CHARGES
-----------------------
   0 C :   -0.136381
   1 C :   -0.256794
   2 C :    0.274038
   3 C :   -0.295945
   4 C :    0.178569
   5 C :   -0.248097
   6 Cl:   -0.121962
   7 O :   -0.460164
   8 H :    0.171469
   9 H :    0.175361
  10 H :    0.168353
  11 H :    0.169923
  12 H :    0.381629
Sum of atomic charges:    0.0000000

LOEWDIN ATOMIC CHARGES
----------------------
   0 C :   -0.129332
   1 C :   -0.134760
   2 C :   -0.262791
   3 C :   -0.134003
   4 C :   -0.412313
   5 C :   -0.168397
   6 Cl:    0.345620
   7 O :    0.051531
   8 H :    0.157659
   9 H :    0.159089
  10 H :    0.159395
  11 H :    0.154396
  12 H :    0.213907

  Mayer bond orders larger than 0.100000
B(  0-C ,  1-C ) :   1.3922 B(  0-C ,  5-C ) :   1.4015 B(  0-C ,  8-H ) :   0.9600
B(  1-C ,  2-C ) :   1.3660 B(  1-C ,  9-H ) :   0.9643 B(  2-C ,  3-C ) :   1.3743
B(  2-C ,  7-O ) :   1.1129 B(  3-C ,  4-C ) :   1.3924 B(  3-C , 10-H ) :   0.9675
B(  4-C ,  5-C ) :   1.3695 B(  4-C ,  6-Cl) :   0.9741 B(  5-C , 11-H ) :   0.9712
B(  7-O , 12-H ) :   0.8459

FINAL SINGLE POINT ENERGY      -767.043124138320

DIPOLE MOMENT
-------------

Method             : SCF
Type of density    : Electron Density
Multiplicity       :   1
Irrep              :   0
Energy             :  -767.0496725746199900 Eh
Relativity type    :
Basis              : AO
                                X                 Y                 Z
Electronic contribution:     -7.567901676       2.914650643      -0.000092516
Nuclear contribution   :      9.035785739      -3.812117784       0.000107010
                        -----------------------------------------
Total Dipole Moment    :      1.467884063      -0.897467141       0.000014495
                        -----------------------------------------
Magnitude (a.u.)       :      1.720503093
Magnitude (Debye)      :      4.373171320

Rotational constants in cm-1:             0.114712             0.039427             0.029342
Rotational constants in MHz :          3438.982738          1182.004158           879.658824

                             ****ORCA TERMINATED NORMALLY****
TOTAL RUN TIME: 0 days 0 hours 2 minutes 23 seconds 57 msec
