                         Program Version 6.0.0  -   RELEASE  -
|  1> ! pbe def2-sv(p) def2/J RI DEFGRID1 loosescf d4 GCP(DFT/SV(P)) printgap
|  2> %output
|  3>     printlevel normal
|  4> end
|  5> * xyz 0 1
|  6> C -0.8204982958 -2.2883861978 -0.0001163069
|  7> C 0.0702631219 -1.0859952707 0.00017475
|  8> C 1.4492022112 -1.2525382211 0.0001942755
|  9> C 2.3115665193 -0.169189259 -3.8887e-06
| 10> C 1.8099639913 1.1245960114 -0.0002882753
| 11> C 0.4455977962 1.3157283139 -0.0001790846
| 12> C -0.4353195678 0.2273303164 0.0001260547
| 13> C -1.8642825814 0.5090899133 0.0008130782
| 14> O -2.3568989958 1.6230318409 -0.0006630643
| 15> H -1.4595367188 -2.2953427368 0.8806764599
| 16> H -1.4580007636 -2.2957699923 -0.881992397
| 17> H -0.223839374 -3.1961733488 0.0006356187
| 18> H 1.8570411492 -2.2522586406 0.0003738277
| 19> H 3.3780890494 -0.3338869557 3.7427e-06
| 20> H 2.4787200078 1.9707826933 -0.0005036831
| 21> H 0.0171543529 2.3074042995 -0.0002466374
| 22> H -2.5274984943 -0.3710217153 0.0029912257
| 23> *
| 24>
| 25>                          ****END OF INPUT****

CARTESIAN COORDINATES (ANGSTROEM)
---------------------------------
  C     -0.820498   -2.288386   -0.000116
  C      0.070263   -1.085995    0.000175
  C      1.449202   -1.252538    0.000194
  C      2.311567   -0.169189   -0.000004
  C      1.809964    1.124596   -0.000288
  C      0.445598    1.315728   -0.000179
  C     -0.435320    0.227330    0.000126
  C     -1.864283    0.509090    0.000813
  O     -2.356899    1.623032   -0.000663
  H     -1.459537   -2.295343    0.880676
  H     -1.458001   -2.295770   -0.881992
  H     -0.223839   -3.196173    0.000636
  H      1.857041   -2.252259    0.000374
  H      3.378089   -0.333887    0.000004
  H      2.478720    1.970783   -0.000504
  H      0.017154    2.307404   -0.000247
  H     -2.527498   -0.371022    0.002991

 Total Charge           Charge          ....    0
 Multiplicity           Mult            ....    1
 Number of Electrons    NEL             ....   64
 Basis Dimension        Dim             ....  142

ORBITAL ENERGIES
----------------

  NO   OCC          E(Eh)            E(eV)
   0   2.0000     -18.742678      -510.0142
   1   2.0000      -9.964505      -271.1480
   2   2.0000      -9.923595      -270.0347
   3   2.0000      -9.909913      -269.6624
   4   2.0000      -9.906125      -269.5594
   5   2.0000      -9.904759      -269.5222
   6   2.0000      -9.903692      -269.4932
   7   2.0000      -9.903671      -269.4926
   8   2.0000      -9.897351      -269.3206
   9   2.0000      -0.934343       -25.4248
  10   2.0000      -0.793788       -21.6001
  11   2.0000      -0.714785       -19.4503
  12   2.0000      -0.691664       -18.8211
  13   2.0000      -0.632039       -17.1987
  14   2.0000      -0.587797       -15.9948
  15   2.0000      -0.541537       -14.7360
  16   2.0000      -0.509744       -13.8708
  17   2.0000      -0.467672       -12.7260
  18   2.0000      -0.437875       -11.9152
  19   2.0000      -0.408504       -11.1159
  20   2.0000      -0.397759       -10.8236
  21   2.0000      -0.392449       -10.6791
  22   2.0000      -0.378728       -10.3057
  23   2.0000      -0.366916        -9.9843
  24   2.0000      -0.357138        -9.7182
  25   2.0000      -0.356876        -9.7111
  26   2.0000      -0.325420        -8.8551
  27   2.0000      -0.318561        -8.6685
  28   2.0000      -0.309178        -8.4132
  29   2.0000      -0.240990        -6.5577
  30   2.0000      -0.236378        -6.4322
  31   2.0000      -0.202001        -5.4967
  32   0.0000      -0.097636        -2.6568
  33   0.0000      -0.044678        -1.2157
  34   0.0000       0.002350         0.0639
  35   0.0000       0.040400         1.0993
  36   0.0000       0.045054         1.2260

MULLIKEN ATOMIC CHARGES
-----------------------
   0 C :   -0.219533
   1 C :    0.000009
   2 C :   -0.132552
   3 C :   -0.028016
   4 C :   -0.036055
   5 C :   -0.107333
   6 C :    0.037608
   7 C :    0.020021
   8 O :   -0.164556
   9 H :    0.128035
  10 H :    0.127997
  11 H :    0.107344
  12 H :    0.043384
  13 H :    0.060991
  14 H :    0.060588
  15 H :    0.064255
  16 H :    0.037814
Sum of atomic charges:   -0.0000000

LOEWDIN ATOMIC CHARGES
----------------------
   0 C :   -0.327750
   1 C :   -0.021209
   2 C :   -0.124921
   3 C :   -0.099477
   4 C :   -0.125057
   5 C :   -0.077140
   6 C :   -0.096189
   7 C :    0.000718
   8 O :   -0.128694
   9 H :    0.137288
  10 H :    0.137324
  11 H :    0.128179
  12 H :    0.124119
  13 H :    0.127883
  14 H :    0.127664
  15 H :    0.134085
  16 H :    0.083177

  Mayer bond orders larger than 0.100000
B(  0-C ,  1-C ) :   1.1378 B(  0-C ,  9-H ) :   0.9205 B(  0-C , 10-H ) :   0.9206
B(  0-C , 11-H ) :   0.9346 B(  1-C ,  2-C ) :   1.4053 B(  1-C ,  6-C ) :   1.3389
B(  2-C ,  3-C ) :   1.3684 B(  2-C , 12-H ) :   0.9556 B(  3-C ,  4-C ) :   1.3402
B(  3-C , 13-H ) :   0.9630 B(  4-C ,  5-C ) :   1.3677 B(  4-C , 14-H ) :   0.9705
B(  5-C ,  6-C ) :   1.3474 B(  5-C , 15-H ) :   0.9566 B(  6-C ,  7-C ) :   1.0199
B(  7-C ,  8-O ) :   2.1329 B(  7-C , 16-H ) :   0.9067

Dispersion correction           -0.017816501
FINAL SINGLE POINT ENERGY      -384.058998284371

DIPOLE MOMENT
-------------

Method             : SCF
Type of density    : Electron Density
Multiplicity       :   1
Irrep              :   0
Energy             :  -384.1054450684089829 Eh
Relativity type    :
Basis              : AO
                                X                 Y                 Z
Electronic contribution:     -1.072463876       5.081208488      -0.001070693
Nuclear contribution   :      1.899712196      -6.042414028       0.001808498
                        -----------------------------------------
Total Dipole Moment    :      0.827248320      -0.961205539       0.000737805
                        -----------------------------------------
Magnitude (a.u.)       :      1.268170500
Magnitude (Debye)      :      3.223433240

Rotational constants in cm-1:             0.084009             0.052635             0.032556
Rotational constants in MHz :          2518.535749          1577.944100           975.995416

                             ****ORCA TERMINATED NORMALLY****
TOTAL RUN TIME: 0 days 0 hours 0 minutes 8 seconds 155 msec
