                         Program Version 6.0.0  -   RELEASE  -
|  1> ! wb97x-v def2-tzvp def2/J RIJCOSX DEFGRID2 scfconv7 GCP(DFT/TZ) printgap
|  2> %output
|  3>     printlevel normal
|  4> end
|  5> * xyz 0 1
|  6> C -4.398400017297167 0.4995609805748793 0.15967233262646857
|  7> C -3.594936528773468 1.4932878096499358 0.7037386971038031
|  8> C -2.2117091495312673 1.3640187621389444 0.6701667921088347
|  9> C -1.590233981736743 0.2491830711174811 0.09406239985724682
| 10> C -2.4110022824086457 -0.7513724498846522 -0.440368278357689
| 11> C -3.7894789265835334 -0.6145723056623835 -0.4023036171335537
| 12> Cl -4.789198856446851 -1.8846191220925987 -1.091264559477823
| 13> C -0.12303654737858927 0.06799834633806444 0.029347420732686293
| 14> C 0.44580541982311206 -1.1009019276095238 0.5343295800844045
| 15> C 1.8165320140123642 -1.298489570504464 0.4477245182202787
| 16> C 2.6493363563298513 -0.3442149493427248 -0.1448161548096601
| 17> C 2.0594234064991657 0.8180098992669227 -0.6555075271156027
| 18> C 0.6916274221248985 1.0275363339650156 -0.5724679872516755
| 19> Cl 3.042775983077051 2.035825555514274 -1.424274204249908
| 20> Cl 4.359275026691585 -0.5943930831047171 -0.24768100905313709
| 21> Cl 2.4893484954909884 -2.767833442434368 1.1017907489857606
| 22> Cl -1.2565698333638091 2.6226410971505674 1.439886730792008
| 23> H -5.477296458346015 0.5975826987834757 0.1836037270028698
| 24> H -4.050917605848459 2.3626288095629104 1.1630550106603625
| 25> H -1.954230576012674 -1.6222169434012528 -0.8967214387438263
| 26> H -0.17581050975949175 -1.85302298880488 1.0061871544252896
| 27> H 0.264393311735664 1.9275298742356237 -0.9972044174641506
| 28> *
| 29>
| 30>                          ****END OF INPUT****

CARTESIAN COORDINATES (ANGSTROEM)
---------------------------------
  C     -4.398400    0.499561    0.159672
  C     -3.594937    1.493288    0.703739
  C     -2.211709    1.364019    0.670167
  C     -1.590234    0.249183    0.094062
  C     -2.411002   -0.751372   -0.440368
  C     -3.789479   -0.614572   -0.402304
  Cl    -4.789199   -1.884619   -1.091265
  C     -0.123037    0.067998    0.029347
  C      0.445805   -1.100902    0.534330
  C      1.816532   -1.298490    0.447725
  C      2.649336   -0.344215   -0.144816
  C      2.059423    0.818010   -0.655508
  C      0.691627    1.027536   -0.572468
  Cl     3.042776    2.035826   -1.424274
  Cl     4.359275   -0.594393   -0.247681
  Cl     2.489348   -2.767833    1.101791
  Cl    -1.256570    2.622641    1.439887
  H     -5.477296    0.597583    0.183604
  H     -4.050918    2.362629    1.163055
  H     -1.954231   -1.622217   -0.896721
  H     -0.175811   -1.853023    1.006187
  H      0.264393    1.927530   -0.997204

 Total Charge           Charge          ....    0
 Multiplicity           Mult            ....    1
 Number of Electrons    NEL             ....  162
 Basis Dimension        Dim             ....  587

ORBITAL ENERGIES
----------------

  NO   OCC          E(Eh)            E(eV)
   0   2.0000    -107.162909     -2916.0510
   1   2.0000    -107.161748     -2916.0194
   2   2.0000    -107.160742     -2915.9920
   3   2.0000    -107.160600     -2915.9882
   4   2.0000    -107.158953     -2915.9433
   5   2.0000     -12.148440      -330.5759
   6   2.0000     -12.146065      -330.5112
   7   2.0000     -12.144746      -330.4753
   8   2.0000     -12.140957      -330.3722
   9   2.0000     -12.138686      -330.3104
  10   2.0000     -12.105421      -329.4053
  11   2.0000     -12.101458      -329.2974
  12   2.0000     -12.090891      -329.0099
  13   2.0000     -12.090389      -328.9962
  14   2.0000     -12.089375      -328.9686
  15   2.0000     -12.088586      -328.9471
  16   2.0000     -12.088120      -328.9345
  17   2.0000     -11.315885      -307.9209
  18   2.0000     -11.314797      -307.8913
  19   2.0000     -11.313791      -307.8639
  20   2.0000     -11.313735      -307.8624
  21   2.0000     -11.312023      -307.8158
  22   2.0000      -9.107720      -247.8337
  23   2.0000      -9.106416      -247.7982
  24   2.0000      -9.105334      -247.7687
  25   2.0000      -9.105261      -247.7668
  26   2.0000      -9.104859      -247.7558
  27   2.0000      -9.104692      -247.7513
  28   2.0000      -9.103616      -247.7220
  29   2.0000      -9.103546      -247.7201
  30   2.0000      -9.103426      -247.7168
  31   2.0000      -9.102662      -247.6960
  32   2.0000      -9.102606      -247.6945
  33   2.0000      -9.102531      -247.6925
  34   2.0000      -9.102496      -247.6915
  35   2.0000      -9.100907      -247.6483
  36   2.0000      -9.100860      -247.6470
  37   2.0000      -1.482484       -40.3404
  38   2.0000      -1.463275       -39.8177
  39   2.0000      -1.442768       -39.2597
  40   2.0000      -1.439538       -39.1718
  41   2.0000      -1.426487       -38.8167
  42   2.0000      -1.403030       -38.1784
  43   2.0000      -1.384076       -37.6626
  44   2.0000      -1.334875       -36.3238
  45   2.0000      -1.299432       -35.3594
  46   2.0000      -1.295692       -35.2576
  47   2.0000      -1.280884       -34.8546
  48   2.0000      -1.180380       -32.1198
  49   2.0000      -1.151320       -31.3290
  50   2.0000      -1.139226       -30.9999
  51   2.0000      -1.118325       -30.4312
  52   2.0000      -1.027641       -27.9635
  53   2.0000      -1.022826       -27.8325
  54   2.0000      -1.006339       -27.3839
  55   2.0000      -0.995471       -27.0882
  56   2.0000      -0.979249       -26.6467
  57   2.0000      -0.957818       -26.0636
  58   2.0000      -0.942952       -25.6590
  59   2.0000      -0.940960       -25.6048
  60   2.0000      -0.923754       -25.1366
  61   2.0000      -0.904883       -24.6231
  62   2.0000      -0.884924       -24.0800
  63   2.0000      -0.875757       -23.8306
  64   2.0000      -0.873761       -23.7763
  65   2.0000      -0.867259       -23.5993
  66   2.0000      -0.853627       -23.2284
  67   2.0000      -0.832169       -22.6445
  68   2.0000      -0.831756       -22.6332
  69   2.0000      -0.819307       -22.2945
  70   2.0000      -0.815372       -22.1874
  71   2.0000      -0.811904       -22.0930
  72   2.0000      -0.808277       -21.9943
  73   2.0000      -0.805211       -21.9109
  74   2.0000      -0.802365       -21.8335
  75   2.0000      -0.790159       -21.5013
  76   2.0000      -0.777693       -21.1621
  77   2.0000      -0.701297       -19.0832
  78   2.0000      -0.681158       -18.5353
  79   2.0000      -0.679013       -18.4769
  80   2.0000      -0.665044       -18.0968
  81   0.0000      -0.327261        -8.9052
  82   0.0000      -0.320127        -8.7111
  83   0.0000      -0.293378        -7.9832
  84   0.0000      -0.290515        -7.9053
  85   0.0000      -0.282720        -7.6932

MULLIKEN ATOMIC CHARGES
-----------------------
   0 C :   -0.177298
   1 C :   -0.182109
   2 C :    0.032485
   3 C :    0.150779
   4 C :   -0.290747
   5 C :    0.165543
   6 Cl:   -0.084507
   7 C :    0.234564
   8 C :   -0.344094
   9 C :    0.134171
  10 C :   -0.018080
  11 C :    0.137274
  12 C :   -0.314095
  13 Cl:   -0.053812
  14 Cl:   -0.027050
  15 Cl:   -0.053866
  16 Cl:   -0.069851
  17 H :    0.143343
  18 H :    0.143824
  19 H :    0.160457
  20 H :    0.157671
  21 H :    0.155398
Sum of atomic charges:   -0.0000000

LOEWDIN ATOMIC CHARGES
----------------------
   0 C :   -0.129615
   1 C :   -0.129193
   2 C :   -0.366530
   3 C :   -0.102034
   4 C :   -0.093464
   5 C :   -0.405210
   6 Cl:    0.379547
   7 C :   -0.106753
   8 C :   -0.098991
   9 C :   -0.420327
  10 C :   -0.442374
  11 C :   -0.418608
  12 C :   -0.102032
  13 Cl:    0.410501
  14 Cl:    0.431678
  15 Cl:    0.410191
  16 Cl:    0.404986
  17 H :    0.151970
  18 H :    0.152342
  19 H :    0.158732
  20 H :    0.158443
  21 H :    0.156742

  Mayer bond orders larger than 0.100000
B(  0-C ,  1-C ) :   1.4002 B(  0-C ,  5-C ) :   1.3892 B(  0-C , 17-H ) :   0.9646
B(  1-C ,  2-C ) :   1.4152 B(  1-C , 18-H ) :   0.9608 B(  2-C ,  3-C ) :   1.3004
B(  2-C , 16-Cl) :   1.0940 B(  3-C ,  4-C ) :   1.3509 B(  3-C ,  7-C ) :   0.8222
B(  4-C ,  5-C ) :   1.4032 B(  4-C , 19-H ) :   0.9587 B(  5-C ,  6-Cl) :   0.9844
B(  7-C ,  8-C ) :   1.3863 B(  7-C , 12-C ) :   1.3561 B(  8-C ,  9-C ) :   1.4137
B(  8-C , 20-H ) :   0.9586 B(  9-C , 10-C ) :   1.3122 B(  9-C , 15-Cl) :   1.0763
B( 10-C , 11-C ) :   1.3021 B( 10-C , 14-Cl) :   1.2033 B( 11-C , 12-C ) :   1.4240
B( 11-C , 13-Cl) :   1.0753 B( 12-C , 21-H ) :   0.9550

FINAL SINGLE POINT ENERGY     -2761.048505594607

DIPOLE MOMENT
-------------

Method             : SCF
Type of density    : Electron Density
Multiplicity       :   1
Irrep              :   0
Energy             : -2761.0592626345069220 Eh
Relativity type    :
Basis              : AO
                                X                 Y                 Z
Electronic contribution:     14.856746153      -1.880033217      -0.644857295
Nuclear contribution   :    -15.855627624       2.099431213       0.713644439
                        -----------------------------------------
Total Dipole Moment    :     -0.998881471       0.219397996       0.068787144
                        -----------------------------------------
Magnitude (a.u.)       :      1.025003095
Magnitude (Debye)      :      2.605350817

Rotational constants in cm-1:             0.013980             0.005090             0.004234
Rotational constants in MHz :           419.113588           152.581662           126.922583

                             ****ORCA TERMINATED NORMALLY****
TOTAL RUN TIME: 0 days 0 hours 10 minutes 46 seconds 65 msec
