                         Program Version 6.0.0  -   RELEASE  -
|  1> ! wb97x-v def2-tzvp def2/J RIJCOSX DEFGRID2 scfconv7 GCP(DFT/TZ) printgap
|  2> %output
|  3>     printlevel normal
|  4> end
|  5> %cpcm
|  6>     smd true
|  7>     smdsolvent "water"
|  8> end
|  9> * xyz 0 1
| 10> C -4.398400017297167 0.4995609805748793 0.15967233262646857
| 11> C -3.594936528773468 1.4932878096499358 0.7037386971038031
| 12> C -2.2117091495312673 1.3640187621389444 0.6701667921088347
| 13> C -1.590233981736743 0.2491830711174811 0.09406239985724682
| 14> C -2.4110022824086457 -0.7513724498846522 -0.440368278357689
| 15> C -3.7894789265835334 -0.6145723056623835 -0.4023036171335537
| 16> Cl -4.789198856446851 -1.8846191220925987 -1.091264559477823
| 17> C -0.12303654737858927 0.06799834633806444 0.029347420732686293
| 18> C 0.44580541982311206 -1.1009019276095238 0.5343295800844045
| 19> C 1.8165320140123642 -1.298489570504464 0.4477245182202787
| 20> C 2.6493363563298513 -0.3442149493427248 -0.1448161548096601
| 21> C 2.0594234064991657 0.8180098992669227 -0.6555075271156027
| 22> C 0.6916274221248985 1.0275363339650156 -0.5724679872516755
| 23> Cl 3.042775983077051 2.035825555514274 -1.424274204249908
| 24> Cl 4.359275026691585 -0.5943930831047171 -0.24768100905313709
| 25> Cl 2.4893484954909884 -2.767833442434368 1.1017907489857606
| 26> Cl -1.2565698333638091 2.6226410971505674 1.439886730792008
| 27> H -5.477296458346015 0.5975826987834757 0.1836037270028698
| 28> H -4.050917605848459 2.3626288095629104 1.1630550106603625
| 29> H -1.954230576012674 -1.6222169434012528 -0.8967214387438263
| 30> H -0.17581050975949175 -1.85302298880488 1.0061871544252896
| 31> H 0.264393311735664 1.9275298742356237 -0.9972044174641506
| 32> *
| 33>
| 34>                          ****END OF INPUT****

CARTESIAN COORDINATES (ANGSTROEM)
---------------------------------
  C     -4.398400    0.499561    0.159672
  C     -3.594937    1.493288    0.703739
  C     -2.211709    1.364019    0.670167
  C     -1.590234    0.249183    0.094062
  C     -2.411002   -0.751372   -0.440368
  C     -3.789479   -0.614572   -0.402304
  Cl    -4.789199   -1.884619   -1.091265
  C     -0.123037    0.067998    0.029347
  C      0.445805   -1.100902    0.534330
  C      1.816532   -1.298490    0.447725
  C      2.649336   -0.344215   -0.144816
  C      2.059423    0.818010   -0.655508
  C      0.691627    1.027536   -0.572468
  Cl     3.042776    2.035826   -1.424274
  Cl     4.359275   -0.594393   -0.247681
  Cl     2.489348   -2.767833    1.101791
  Cl    -1.256570    2.622641    1.439887
  H     -5.477296    0.597583    0.183604
  H     -4.050918    2.362629    1.163055
  H     -1.954231   -1.622217   -0.896721
  H     -0.175811   -1.853023    1.006187
  H      0.264393    1.927530   -0.997204

 Total Charge           Charge          ....    0
 Multiplicity           Mult            ....    1
 Number of Electrons    NEL             ....  162
 Basis Dimension        Dim             ....  587

ORBITAL ENERGIES
----------------

  NO   OCC          E(Eh)            E(eV)
   0   2.0000    -107.163793     -2916.0750
   1   2.0000    -107.159712     -2915.9640
   2   2.0000    -107.159589     -2915.9607
   3   2.0000    -107.152990     -2915.7811
   4   2.0000    -107.151852     -2915.7501
   5   2.0000     -12.143053      -330.4293
   6   2.0000     -12.139083      -330.3212
   7   2.0000     -12.138120      -330.2950
   8   2.0000     -12.128329      -330.0286
   9   2.0000     -12.125151      -329.9421
  10   2.0000     -12.092091      -329.0425
  11   2.0000     -12.090476      -328.9986
  12   2.0000     -12.078164      -328.6636
  13   2.0000     -12.077659      -328.6498
  14   2.0000     -12.074596      -328.5665
  15   2.0000     -12.073858      -328.5464
  16   2.0000     -12.071794      -328.4902
  17   2.0000     -11.316844      -307.9470
  18   2.0000     -11.312831      -307.8378
  19   2.0000     -11.312709      -307.8345
  20   2.0000     -11.306214      -307.6577
  21   2.0000     -11.305021      -307.6253
  22   2.0000      -9.108593      -247.8574
  23   2.0000      -9.105716      -247.7791
  24   2.0000      -9.105684      -247.7783
  25   2.0000      -9.104615      -247.7492
  26   2.0000      -9.104067      -247.7342
  27   2.0000      -9.101687      -247.6695
  28   2.0000      -9.101625      -247.6678
  29   2.0000      -9.101567      -247.6662
  30   2.0000      -9.101499      -247.6644
  31   2.0000      -9.097786      -247.5633
  32   2.0000      -9.096526      -247.5291
  33   2.0000      -9.095151      -247.4917
  34   2.0000      -9.095091      -247.4900
  35   2.0000      -9.093951      -247.4590
  36   2.0000      -9.093907      -247.4578
  37   2.0000      -1.478554       -40.2335
  38   2.0000      -1.452204       -39.5165
  39   2.0000      -1.440169       -39.1890
  40   2.0000      -1.431106       -38.9424
  41   2.0000      -1.425389       -38.7868
  42   2.0000      -1.395047       -37.9612
  43   2.0000      -1.374231       -37.3947
  44   2.0000      -1.323441       -36.0127
  45   2.0000      -1.291153       -35.1341
  46   2.0000      -1.284063       -34.9411
  47   2.0000      -1.270084       -34.5608
  48   2.0000      -1.168666       -31.8010
  49   2.0000      -1.141944       -31.0739
  50   2.0000      -1.126867       -30.6636
  51   2.0000      -1.106711       -30.1151
  52   2.0000      -1.018027       -27.7019
  53   2.0000      -1.013295       -27.5732
  54   2.0000      -0.993108       -27.0238
  55   2.0000      -0.987147       -26.8616
  56   2.0000      -0.968997       -26.3678
  57   2.0000      -0.949535       -25.8382
  58   2.0000      -0.935974       -25.4691
  59   2.0000      -0.932813       -25.3831
  60   2.0000      -0.906928       -24.6788
  61   2.0000      -0.893456       -24.3122
  62   2.0000      -0.872668       -23.7465
  63   2.0000      -0.869367       -23.6567
  64   2.0000      -0.863849       -23.5065
  65   2.0000      -0.851149       -23.1609
  66   2.0000      -0.843292       -22.9471
  67   2.0000      -0.830370       -22.5955
  68   2.0000      -0.824585       -22.4381
  69   2.0000      -0.819666       -22.3042
  70   2.0000      -0.815117       -22.1805
  71   2.0000      -0.810275       -22.0487
  72   2.0000      -0.802147       -21.8275
  73   2.0000      -0.800527       -21.7834
  74   2.0000      -0.797892       -21.7118
  75   2.0000      -0.782508       -21.2931
  76   2.0000      -0.769447       -20.9377
  77   2.0000      -0.691347       -18.8125
  78   2.0000      -0.673482       -18.3264
  79   2.0000      -0.666179       -18.1277
  80   2.0000      -0.653406       -17.7801
  81   0.0000      -0.323827        -8.8118
  82   0.0000      -0.310169        -8.4401
  83   0.0000      -0.283137        -7.7045
  84   0.0000      -0.279414        -7.6032
  85   0.0000      -0.272516        -7.4155

MULLIKEN ATOMIC CHARGES
-----------------------
   0 C :   -0.207716
   1 C :   -0.218542
   2 C :    0.050993
   3 C :    0.164010
   4 C :   -0.296736
   5 C :    0.180014
   6 Cl:   -0.106860
   7 C :    0.203656
   8 C :   -0.337061
   9 C :    0.137264
  10 C :   -0.006450
  11 C :    0.140156
  12 C :   -0.330413
  13 Cl:   -0.073080
  14 Cl:   -0.049818
  15 Cl:   -0.072354
  16 Cl:   -0.093299
  17 H :    0.177765
  18 H :    0.177026
  19 H :    0.186429
  20 H :    0.187930
  21 H :    0.187087
Sum of atomic charges:   -0.0000000

LOEWDIN ATOMIC CHARGES
----------------------
   0 C :   -0.126167
   1 C :   -0.126432
   2 C :   -0.367775
   3 C :   -0.099204
   4 C :   -0.085805
   5 C :   -0.410939
   6 Cl:    0.362236
   7 C :   -0.102154
   8 C :   -0.084037
   9 C :   -0.422507
  10 C :   -0.445228
  11 C :   -0.422458
  12 C :   -0.096149
  13 Cl:    0.395899
  14 Cl:    0.415363
  15 Cl:    0.396477
  16 Cl:    0.389932
  17 H :    0.162114
  18 H :    0.162363
  19 H :    0.168556
  20 H :    0.170109
  21 H :    0.165807

  Mayer bond orders larger than 0.100000
B(  0-C ,  1-C ) :   1.4089 B(  0-C ,  5-C ) :   1.3561 B(  0-C , 17-H ) :   0.9678
B(  1-C ,  2-C ) :   1.3874 B(  1-C , 18-H ) :   0.9654 B(  2-C ,  3-C ) :   1.2859
B(  2-C , 16-Cl) :   1.0606 B(  3-C ,  4-C ) :   1.3638 B(  3-C ,  7-C ) :   0.8215
B(  4-C ,  5-C ) :   1.3774 B(  4-C , 19-H ) :   0.9603 B(  5-C ,  6-Cl) :   0.9722
B(  7-C ,  8-C ) :   1.3964 B(  7-C , 12-C ) :   1.3516 B(  8-C ,  9-C ) :   1.3939
B(  8-C , 20-H ) :   0.9590 B(  9-C , 10-C ) :   1.3090 B(  9-C , 15-Cl) :   1.0672
B( 10-C , 11-C ) :   1.3032 B( 10-C , 14-Cl) :   1.1744 B( 11-C , 12-C ) :   1.4085
B( 11-C , 13-Cl) :   1.0639 B( 12-C , 21-H ) :   0.9535

FINAL SINGLE POINT ENERGY     -2761.051448266902

DIPOLE MOMENT
-------------

Method             : SCF
Type of density    : Electron Density
Multiplicity       :   1
Irrep              :   0
Energy             : -2761.0622053068018431 Eh
Relativity type    :
Basis              : AO
                                X                 Y                 Z
Electronic contribution:     14.337424942      -1.861795304      -0.641138512
Nuclear contribution   :    -15.855627624       2.099431213       0.713644439
                        -----------------------------------------
Total Dipole Moment    :     -1.518202681       0.237635910       0.072505927
                        -----------------------------------------
Magnitude (a.u.)       :      1.538397646
Magnitude (Debye)      :      3.910296059

Rotational constants in cm-1:             0.013980             0.005090             0.004234
Rotational constants in MHz :           419.113588           152.581662           126.922583

                             ****ORCA TERMINATED NORMALLY****
TOTAL RUN TIME: 0 days 0 hours 11 minutes 8 seconds 872 msec
