                         Program Version 6.0.0  -   RELEASE  -
|  1> ! r2scan-3c def2/J RI DEFGRID2 scfconv6 printgap
|  2> %output
|  3>     printlevel normal
|  4> end
|  5> * xyz 0 1
|  6> C -3.0376207834 -1.457927873 -0.0008638956
|  7> C -1.7404244615 -0.7098242857 6.1441e-05
|  8> C -0.5470869548 -1.3827016756 0.0003584622
|  9> C 0.690581426 -0.7089294296 0.0003995161
| 10> C 1.9239451726 -1.3922352287 0.0004446352
| 11> C 3.103991077 -0.7019096683 -5.17214e-05
| 12> C 3.1039776517 0.7019422653 -0.0005705323
| 13> C 1.923916641 1.3922426998 -0.0003839672
| 14> C 0.6905759103 0.7089036997 0.0001249969
| 15> C -0.5470911036 1.3826540026 0.0002877318
| 16> C -1.7404331987 0.7097649107 0.0002968465
| 17> C -3.0375937403 1.4579811303 0.0001972129
| 18> H -3.6274020363 -1.2017020196 0.8778811984
| 19> H -3.6252765534 -1.2026811493 -0.8813620705
| 20> H -2.8606918338 -2.5300828573 -9.21768e-05
| 21> H -0.5392182202 -2.4642724796 0.0004008232
| 22> H 1.9190721391 -2.4730841794 0.0007470317
| 23> H 4.0456732922 -1.2310458504 -0.0001193904
| 24> H 4.0456267876 1.2311432406 -0.0010388348
| 25> H 1.9190630573 2.4730905848 -0.0006360181
| 26> H -0.5392610939 2.4642230289 0.0002844204
| 27> H -3.6272771127 1.2009430214 0.8787364146
| 28> H -2.8604215056 2.5300953096 0.0021347915
| 29> H -3.6253266943 1.2038434996 -0.8805199014
| 30> *
| 31>
| 32>                          ****END OF INPUT****

CARTESIAN COORDINATES (ANGSTROEM)
---------------------------------
  C     -3.037621   -1.457928   -0.000864
  C     -1.740424   -0.709824    0.000061
  C     -0.547087   -1.382702    0.000358
  C      0.690581   -0.708929    0.000400
  C      1.923945   -1.392235    0.000445
  C      3.103991   -0.701910   -0.000052
  C      3.103978    0.701942   -0.000571
  C      1.923917    1.392243   -0.000384
  C      0.690576    0.708904    0.000125
  C     -0.547091    1.382654    0.000288
  C     -1.740433    0.709765    0.000297
  C     -3.037594    1.457981    0.000197
  H     -3.627402   -1.201702    0.877881
  H     -3.625277   -1.202681   -0.881362
  H     -2.860692   -2.530083   -0.000092
  H     -0.539218   -2.464272    0.000401
  H      1.919072   -2.473084    0.000747
  H      4.045673   -1.231046   -0.000119
  H      4.045627    1.231143   -0.001039
  H      1.919063    2.473091   -0.000636
  H     -0.539261    2.464223    0.000284
  H     -3.627277    1.200943    0.878736
  H     -2.860422    2.530095    0.002135
  H     -3.625327    1.203843   -0.880520

 Total Charge           Charge          ....    0
 Multiplicity           Mult            ....    1
 Number of Electrons    NEL             ....   84
 Basis Dimension        Dim             ....  288

ORBITAL ENERGIES
----------------

  NO   OCC          E(Eh)            E(eV)
   0   2.0000     -10.042742      -273.2769
   1   2.0000     -10.042406      -273.2678
   2   2.0000     -10.039565      -273.1905
   3   2.0000     -10.039224      -273.1812
   4   2.0000     -10.031674      -272.9757
   5   2.0000     -10.031668      -272.9756
   6   2.0000     -10.030572      -272.9458
   7   2.0000     -10.030198      -272.9356
   8   2.0000     -10.029427      -272.9146
   9   2.0000     -10.029415      -272.9143
  10   2.0000     -10.029324      -272.9118
  11   2.0000     -10.029313      -272.9115
  12   2.0000      -0.845249       -23.0004
  13   2.0000      -0.801595       -21.8125
  14   2.0000      -0.746740       -20.3198
  15   2.0000      -0.734465       -19.9858
  16   2.0000      -0.710457       -19.3325
  17   2.0000      -0.654161       -17.8006
  18   2.0000      -0.654074       -17.7982
  19   2.0000      -0.575663       -15.6646
  20   2.0000      -0.565747       -15.3948
  21   2.0000      -0.559515       -15.2252
  22   2.0000      -0.484734       -13.1903
  23   2.0000      -0.460297       -12.5253
  24   2.0000      -0.453394       -12.3375
  25   2.0000      -0.415993       -11.3197
  26   2.0000      -0.413563       -11.2536
  27   2.0000      -0.411540       -11.1986
  28   2.0000      -0.386176       -10.5084
  29   2.0000      -0.384755       -10.4697
  30   2.0000      -0.374722       -10.1967
  31   2.0000      -0.359781        -9.7901
  32   2.0000      -0.359119        -9.7721
  33   2.0000      -0.354557        -9.6480
  34   2.0000      -0.353372        -9.6157
  35   2.0000      -0.326184        -8.8759
  36   2.0000      -0.299670        -8.1544
  37   2.0000      -0.294882        -8.0241
  38   2.0000      -0.292886        -7.9698
  39   2.0000      -0.262715        -7.1489
  40   2.0000      -0.219198        -5.9647
  41   2.0000      -0.196698        -5.3524
  42   0.0000      -0.059902        -1.6300
  43   0.0000      -0.030163        -0.8208
  44   0.0000       0.000761         0.0207
  45   0.0000       0.069438         1.8895
  46   0.0000       0.082094         2.2339

MULLIKEN ATOMIC CHARGES
-----------------------
   0 C :   -0.577152
   1 C :    0.205489
   2 C :   -0.330170
   3 C :    0.212313
   4 C :   -0.263380
   5 C :   -0.152130
   6 C :   -0.152127
   7 C :   -0.263378
   8 C :    0.212316
   9 C :   -0.330205
  10 C :    0.205472
  11 C :   -0.577129
  12 H :    0.161889
  13 H :    0.162018
  14 H :    0.152019
  15 H :    0.142159
  16 H :    0.142358
  17 H :    0.144600
  18 H :    0.144599
  19 H :    0.142358
  20 H :    0.142152
  21 H :    0.161872
  22 H :    0.152013
  23 H :    0.162043
Sum of atomic charges:    0.0000000

LOEWDIN ATOMIC CHARGES
----------------------
   0 C :   -0.385043
   1 C :   -0.090236
   2 C :   -0.144251
   3 C :   -0.057900
   4 C :   -0.147368
   5 C :   -0.169077
   6 C :   -0.169079
   7 C :   -0.147369
   8 C :   -0.057903
   9 C :   -0.144250
  10 C :   -0.090234
  11 C :   -0.385043
  12 H :    0.163474
  13 H :    0.163520
  14 H :    0.160282
  15 H :    0.170346
  16 H :    0.169457
  17 H :    0.166805
  18 H :    0.166805
  19 H :    0.169457
  20 H :    0.170344
  21 H :    0.163470
  22 H :    0.160284
  23 H :    0.163513

  Mayer bond orders larger than 0.100000
B(  0-C ,  1-C ) :   0.7667 B(  0-C , 12-H ) :   0.9793 B(  0-C , 13-H ) :   0.9793
B(  0-C , 14-H ) :   0.9880 B(  1-C ,  2-C ) :   1.5147 B(  1-C , 10-C ) :   1.3134
B(  2-C ,  3-C ) :   1.2411 B(  2-C , 15-H ) :   0.9159 B(  3-C ,  4-C ) :   1.2082
B(  3-C ,  8-C ) :   1.4976 B(  4-C ,  5-C ) :   1.5010 B(  4-C , 16-H ) :   0.9504
B(  5-C ,  6-C ) :   1.2726 B(  5-C , 17-H ) :   0.9480 B(  6-C ,  7-C ) :   1.5010
B(  6-C , 18-H ) :   0.9480 B(  7-C ,  8-C ) :   1.2082 B(  7-C , 19-H ) :   0.9504
B(  8-C ,  9-C ) :   1.2411 B(  9-C , 10-C ) :   1.5147 B(  9-C , 20-H ) :   0.9159
B( 10-C , 11-C ) :   0.7667 B( 11-C , 21-H ) :   0.9793 B( 11-C , 22-H ) :   0.9880
B( 11-C , 23-H ) :   0.9793

Dispersion correction           -0.009528001
FINAL SINGLE POINT ENERGY      -464.390010654958

DIPOLE MOMENT
-------------

Method             : SCF
Type of density    : Electron Density
Multiplicity       :   1
Irrep              :   0
Energy             :  -464.3876134952685106 Eh
Relativity type    :
Basis              : AO
                                X                 Y                 Z
Electronic contribution:      8.387467796      -0.000412009       0.002851945
Nuclear contribution   :     -8.795748927       0.000441080      -0.003362128
                        -----------------------------------------
Total Dipole Moment    :     -0.408281132       0.000029071      -0.000510184
                        -----------------------------------------
Magnitude (a.u.)       :      0.408281452
Magnitude (Debye)      :      1.037768977

Rotational constants in cm-1:             0.073601             0.022565             0.017381
Rotational constants in MHz :          2206.498930           676.480981           521.077964

                             ****ORCA TERMINATED NORMALLY****
TOTAL RUN TIME: 0 days 0 hours 0 minutes 29 seconds 351 msec
