                         Program Version 6.0.0  -   RELEASE  -
|  1> ! r2scan-3c def2/J RI DEFGRID2 scfconv6 printgap
|  2> %output
|  3>     printlevel normal
|  4> end
|  5> %cpcm
|  6>     smd true
|  7>     smdsolvent "water"
|  8> end
|  9> * xyz 0 1
| 10> C -3.0376207834 -1.457927873 -0.0008638956
| 11> C -1.7404244615 -0.7098242857 6.1441e-05
| 12> C -0.5470869548 -1.3827016756 0.0003584622
| 13> C 0.690581426 -0.7089294296 0.0003995161
| 14> C 1.9239451726 -1.3922352287 0.0004446352
| 15> C 3.103991077 -0.7019096683 -5.17214e-05
| 16> C 3.1039776517 0.7019422653 -0.0005705323
| 17> C 1.923916641 1.3922426998 -0.0003839672
| 18> C 0.6905759103 0.7089036997 0.0001249969
| 19> C -0.5470911036 1.3826540026 0.0002877318
| 20> C -1.7404331987 0.7097649107 0.0002968465
| 21> C -3.0375937403 1.4579811303 0.0001972129
| 22> H -3.6274020363 -1.2017020196 0.8778811984
| 23> H -3.6252765534 -1.2026811493 -0.8813620705
| 24> H -2.8606918338 -2.5300828573 -9.21768e-05
| 25> H -0.5392182202 -2.4642724796 0.0004008232
| 26> H 1.9190721391 -2.4730841794 0.0007470317
| 27> H 4.0456732922 -1.2310458504 -0.0001193904
| 28> H 4.0456267876 1.2311432406 -0.0010388348
| 29> H 1.9190630573 2.4730905848 -0.0006360181
| 30> H -0.5392610939 2.4642230289 0.0002844204
| 31> H -3.6272771127 1.2009430214 0.8787364146
| 32> H -2.8604215056 2.5300953096 0.0021347915
| 33> H -3.6253266943 1.2038434996 -0.8805199014
| 34> *
| 35>
| 36>                          ****END OF INPUT****

CARTESIAN COORDINATES (ANGSTROEM)
---------------------------------
  C     -3.037621   -1.457928   -0.000864
  C     -1.740424   -0.709824    0.000061
  C     -0.547087   -1.382702    0.000358
  C      0.690581   -0.708929    0.000400
  C      1.923945   -1.392235    0.000445
  C      3.103991   -0.701910   -0.000052
  C      3.103978    0.701942   -0.000571
  C      1.923917    1.392243   -0.000384
  C      0.690576    0.708904    0.000125
  C     -0.547091    1.382654    0.000288
  C     -1.740433    0.709765    0.000297
  C     -3.037594    1.457981    0.000197
  H     -3.627402   -1.201702    0.877881
  H     -3.625277   -1.202681   -0.881362
  H     -2.860692   -2.530083   -0.000092
  H     -0.539218   -2.464272    0.000401
  H      1.919072   -2.473084    0.000747
  H      4.045673   -1.231046   -0.000119
  H      4.045627    1.231143   -0.001039
  H      1.919063    2.473091   -0.000636
  H     -0.539261    2.464223    0.000284
  H     -3.627277    1.200943    0.878736
  H     -2.860422    2.530095    0.002135
  H     -3.625327    1.203843   -0.880520

 Total Charge           Charge          ....    0
 Multiplicity           Mult            ....    1
 Number of Electrons    NEL             ....   84
 Basis Dimension        Dim             ....  288

ORBITAL ENERGIES
----------------

  NO   OCC          E(Eh)            E(eV)
   0   2.0000     -10.042362      -273.2666
   1   2.0000     -10.042027      -273.2574
   2   2.0000     -10.040557      -273.2174
   3   2.0000     -10.040215      -273.2081
   4   2.0000     -10.032186      -272.9897
   5   2.0000     -10.032172      -272.9893
   6   2.0000     -10.031261      -272.9645
   7   2.0000     -10.030894      -272.9545
   8   2.0000     -10.027479      -272.8616
   9   2.0000     -10.027468      -272.8613
  10   2.0000     -10.018238      -272.6101
  11   2.0000     -10.018226      -272.6098
  12   2.0000      -0.846984       -23.0476
  13   2.0000      -0.801714       -21.8158
  14   2.0000      -0.746166       -20.3042
  15   2.0000      -0.733267       -19.9532
  16   2.0000      -0.707876       -19.2623
  17   2.0000      -0.650335       -17.6965
  18   2.0000      -0.650120       -17.6907
  19   2.0000      -0.573162       -15.5965
  20   2.0000      -0.564616       -15.3640
  21   2.0000      -0.558091       -15.1864
  22   2.0000      -0.482778       -13.1370
  23   2.0000      -0.457360       -12.4454
  24   2.0000      -0.451287       -12.2801
  25   2.0000      -0.412443       -11.2232
  26   2.0000      -0.409545       -11.1443
  27   2.0000      -0.404437       -11.0053
  28   2.0000      -0.383778       -10.4431
  29   2.0000      -0.381520       -10.3817
  30   2.0000      -0.364146        -9.9089
  31   2.0000      -0.362660        -9.8685
  32   2.0000      -0.353198        -9.6110
  33   2.0000      -0.348207        -9.4752
  34   2.0000      -0.345436        -9.3998
  35   2.0000      -0.321965        -8.7611
  36   2.0000      -0.297019        -8.0823
  37   2.0000      -0.295259        -8.0344
  38   2.0000      -0.291875        -7.9423
  39   2.0000      -0.266771        -7.2592
  40   2.0000      -0.221730        -6.0336
  41   2.0000      -0.199789        -5.4365
  42   0.0000      -0.062569        -1.7026
  43   0.0000      -0.033005        -0.8981
  44   0.0000      -0.002261        -0.0615
  45   0.0000       0.068644         1.8679
  46   0.0000       0.092408         2.5145

MULLIKEN ATOMIC CHARGES
-----------------------
   0 C :   -0.610104
   1 C :    0.189755
   2 C :   -0.348694
   3 C :    0.175401
   4 C :   -0.281919
   5 C :   -0.188836
   6 C :   -0.188837
   7 C :   -0.281912
   8 C :    0.175392
   9 C :   -0.348694
  10 C :    0.189720
  11 C :   -0.610081
  12 H :    0.182766
  13 H :    0.182856
  14 H :    0.170725
  15 H :    0.175104
  16 H :    0.176323
  17 H :    0.176634
  18 H :    0.176633
  19 H :    0.176324
  20 H :    0.175099
  21 H :    0.182751
  22 H :    0.170717
  23 H :    0.182877
Sum of atomic charges:    0.0000000

LOEWDIN ATOMIC CHARGES
----------------------
   0 C :   -0.390316
   1 C :   -0.091767
   2 C :   -0.154932
   3 C :   -0.074950
   4 C :   -0.157203
   5 C :   -0.181045
   6 C :   -0.181047
   7 C :   -0.157203
   8 C :   -0.074953
   9 C :   -0.154930
  10 C :   -0.091764
  11 C :   -0.390314
  12 H :    0.171473
  13 H :    0.171507
  14 H :    0.165783
  15 H :    0.182658
  16 H :    0.181315
  17 H :    0.177482
  18 H :    0.177482
  19 H :    0.181315
  20 H :    0.182656
  21 H :    0.171466
  22 H :    0.165784
  23 H :    0.171501

  Mayer bond orders larger than 0.100000
B(  0-C ,  1-C ) :   0.7901 B(  0-C , 12-H ) :   0.9713 B(  0-C , 13-H ) :   0.9712
B(  0-C , 14-H ) :   0.9819 B(  1-C ,  2-C ) :   1.4931 B(  1-C , 10-C ) :   1.2535
B(  2-C ,  3-C ) :   1.2263 B(  2-C , 15-H ) :   0.9421 B(  3-C ,  4-C ) :   1.2060
B(  3-C ,  8-C ) :   1.3950 B(  4-C ,  5-C ) :   1.4642 B(  4-C , 16-H ) :   0.9596
B(  5-C ,  6-C ) :   1.2345 B(  5-C , 17-H ) :   0.9611 B(  6-C ,  7-C ) :   1.4642
B(  6-C , 18-H ) :   0.9611 B(  7-C ,  8-C ) :   1.2059 B(  7-C , 19-H ) :   0.9596
B(  8-C ,  9-C ) :   1.2263 B(  9-C , 10-C ) :   1.4931 B(  9-C , 20-H ) :   0.9421
B( 10-C , 11-C ) :   0.7901 B( 11-C , 21-H ) :   0.9713 B( 11-C , 22-H ) :   0.9819
B( 11-C , 23-H ) :   0.9712

Dispersion correction           -0.009528001
FINAL SINGLE POINT ENERGY      -464.393512186786

DIPOLE MOMENT
-------------

Method             : SCF
Type of density    : Electron Density
Multiplicity       :   1
Irrep              :   0
Energy             :  -464.3911150270968164 Eh
Relativity type    :
Basis              : AO
                                X                 Y                 Z
Electronic contribution:      8.137749428      -0.000386830       0.002656519
Nuclear contribution   :     -8.795748927       0.000441080      -0.003362128
                        -----------------------------------------
Total Dipole Moment    :     -0.657999499       0.000054250      -0.000705610
                        -----------------------------------------
Magnitude (a.u.)       :      0.657999880
Magnitude (Debye)      :      1.672502779

Rotational constants in cm-1:             0.073601             0.022565             0.017381
Rotational constants in MHz :          2206.498930           676.480981           521.077964

                             ****ORCA TERMINATED NORMALLY****
TOTAL RUN TIME: 0 days 0 hours 0 minutes 36 seconds 938 msec
