                         Program Version 6.0.0  -   RELEASE  -
|  1> ! pbe def2-sv(p) def2/J RI DEFGRID1 loosescf d4 GCP(DFT/SV(P)) printgap
|  2> %output
|  3>     printlevel normal
|  4> end
|  5> * xyz 0 1
|  6> C -1.949173659 -0.1239261579 -0.0311730225
|  7> C -0.572311213 0.5277707071 0.0032878754
|  8> C 0.5475771928 -0.511964449 0.0065024768
|  9> N 1.8854046727 0.0912598523 -0.0326321687
| 10> H -2.0564996356 -0.7355001309 -0.9237918127
| 11> H -2.0920862511 -0.7602822429 0.839291132
| 12> H -2.7277360688 0.6344572665 -0.0360016844
| 13> H -0.4867658562 1.1513234217 0.8977121739
| 14> H -0.4508292028 1.1719097415 -0.8703042823
| 15> H 0.4323723521 -1.1583791631 0.8843525434
| 16> H 0.4458960888 -1.1479656024 -0.8819144043
| 17> H 2.4457614742 -0.2336843205 0.7449091224
| 18> H 1.8109400931 1.0983106048 0.0540137526
| 19> *
| 20>
| 21>                          ****END OF INPUT****

CARTESIAN COORDINATES (ANGSTROEM)
---------------------------------
  C     -1.949174   -0.123926   -0.031173
  C     -0.572311    0.527771    0.003288
  C      0.547577   -0.511964    0.006502
  N      1.885405    0.091260   -0.032632
  H     -2.056500   -0.735500   -0.923792
  H     -2.092086   -0.760282    0.839291
  H     -2.727736    0.634457   -0.036002
  H     -0.486766    1.151323    0.897712
  H     -0.450829    1.171910   -0.870304
  H      0.432372   -1.158379    0.884353
  H      0.445896   -1.147966   -0.881914
  H      2.445761   -0.233684    0.744909
  H      1.810940    1.098311    0.054014

 Total Charge           Charge          ....    0
 Multiplicity           Mult            ....    1
 Number of Electrons    NEL             ....   34
 Basis Dimension        Dim             ....   74

ORBITAL ENERGIES
----------------

  NO   OCC          E(Eh)            E(eV)
   0   2.0000     -13.949876      -379.5954
   1   2.0000      -9.901858      -269.4433
   2   2.0000      -9.885574      -269.0001
   3   2.0000      -9.875101      -268.7152
   4   2.0000      -0.786055       -21.3896
   5   2.0000      -0.689633       -18.7659
   6   2.0000      -0.584941       -15.9170
   7   2.0000      -0.523601       -14.2479
   8   2.0000      -0.433302       -11.7907
   9   2.0000      -0.409721       -11.1491
  10   2.0000      -0.395804       -10.7704
  11   2.0000      -0.346514        -9.4291
  12   2.0000      -0.344809        -9.3827
  13   2.0000      -0.312312        -8.4985
  14   2.0000      -0.295790        -8.0489
  15   2.0000      -0.288084        -7.8392
  16   2.0000      -0.173211        -4.7133
  17   0.0000       0.037319         1.0155
  18   0.0000       0.050203         1.3661
  19   0.0000       0.071846         1.9550
  20   0.0000       0.084338         2.2950
  21   0.0000       0.113997         3.1020

MULLIKEN ATOMIC CHARGES
-----------------------
   0 C :   -0.272794
   1 C :   -0.234456
   2 C :   -0.074749
   3 N :   -0.456273
   4 H :    0.103129
   5 H :    0.099269
   6 H :    0.104612
   7 H :    0.081206
   8 H :    0.096692
   9 H :    0.071891
  10 H :    0.081935
  11 H :    0.200723
  12 H :    0.198815
Sum of atomic charges:    0.0000000

LOEWDIN ATOMIC CHARGES
----------------------
   0 C :   -0.339099
   1 C :   -0.249568
   2 C :   -0.176393
   3 N :   -0.426834
   4 H :    0.119300
   5 H :    0.117047
   6 H :    0.120285
   7 H :    0.109553
   8 H :    0.116519
   9 H :    0.100283
  10 H :    0.103533
  11 H :    0.204732
  12 H :    0.200643

  Mayer bond orders larger than 0.100000
B(  0-C ,  1-C ) :   1.1510 B(  0-C ,  4-H ) :   0.9548 B(  0-C ,  5-H ) :   0.9557
B(  0-C ,  6-H ) :   0.9524 B(  1-C ,  2-C ) :   1.1359 B(  1-C ,  7-H ) :   0.9210
B(  1-C ,  8-H ) :   0.9243 B(  2-C ,  3-N ) :   1.1209 B(  2-C ,  9-H ) :   0.9332
B(  2-C , 10-H ) :   0.9277 B(  3-N , 11-H ) :   0.9087 B(  3-N , 12-H ) :   0.9111

Dispersion correction           -0.007083935
FINAL SINGLE POINT ENERGY      -174.028229665762

DIPOLE MOMENT
-------------

Method             : SCF
Type of density    : Electron Density
Multiplicity       :   1
Irrep              :   0
Energy             :  -174.0782569086465230 Eh
Relativity type    :
Basis              : AO
                                X                 Y                 Z
Electronic contribution:      2.305330956       0.165515161      -0.156644139
Nuclear contribution   :     -2.502925413       0.019443958       0.664295464
                        -----------------------------------------
Total Dipole Moment    :     -0.197594457       0.184959119       0.507651325
                        -----------------------------------------
Magnitude (a.u.)       :      0.575294110
Magnitude (Debye)      :      1.462281418

Rotational constants in cm-1:             0.831696             0.125224             0.116793
Rotational constants in MHz :         24933.621619          3754.125996          3501.377052

                             ****ORCA TERMINATED NORMALLY****
TOTAL RUN TIME: 0 days 0 hours 0 minutes 4 seconds 976 msec
