                         Program Version 6.0.0  -   RELEASE  -
|  1> ! pbe def2-sv(p) def2/J RI DEFGRID1 loosescf d4 GCP(DFT/SV(P)) printgap
|  2> %output
|  3>     printlevel normal
|  4> end
|  5> * xyz 0 1
|  6> C -3.3596845891 -0.0024139636 -0.5252165756
|  7> C -2.7228952822 -1.2003645769 -0.2456577594
|  8> C -1.456280773 -1.1992518639 0.3099823218
|  9> C -0.8170735577 0.0021566449 0.5965793618
| 10> C -1.4587764879 1.2012273218 0.3058956757
| 11> C -2.7253753952 1.1977893877 -0.249796577
| 12> C 0.5480847541 0.0045819852 1.1889976559
| 13> Br 1.9437399041 -0.000666582 -0.241454961
| 14> H -4.3470859267 -0.004176105 -0.960201903
| 15> H -3.2119348376 -2.1375854157 -0.4620121054
| 16> H -0.9578234143 -2.1337532658 0.5229361674
| 17> H -0.9621874376 2.1374989692 0.5153853476
| 18> H -3.2164407161 2.1332517938 -0.4691394674
| 19> H 0.7529894535 -0.8895729115 1.7733001284
| 20> H 0.7524258022 0.9027928272 1.7672608216
| 21> *
| 22>
| 23>                          ****END OF INPUT****

CARTESIAN COORDINATES (ANGSTROEM)
---------------------------------
  C     -3.359685   -0.002414   -0.525217
  C     -2.722895   -1.200365   -0.245658
  C     -1.456281   -1.199252    0.309982
  C     -0.817074    0.002157    0.596579
  C     -1.458776    1.201227    0.305896
  C     -2.725375    1.197789   -0.249797
  C      0.548085    0.004582    1.188998
  Br     1.943740   -0.000667   -0.241455
  H     -4.347086   -0.004176   -0.960202
  H     -3.211935   -2.137585   -0.462012
  H     -0.957823   -2.133753    0.522936
  H     -0.962187    2.137499    0.515385
  H     -3.216441    2.133252   -0.469139
  H      0.752989   -0.889573    1.773300
  H      0.752426    0.902793    1.767261

 Total Charge           Charge          ....    0
 Multiplicity           Mult            ....    1
 Number of Electrons    NEL             ....   84
 Basis Dimension        Dim             ....  144

ORBITAL ENERGIES
----------------

  NO   OCC          E(Eh)            E(eV)
   0   2.0000    -480.918373    -13086.4542
   1   2.0000     -61.760689     -1680.5938
   2   2.0000     -55.691345     -1515.4385
   3   2.0000     -55.688202     -1515.3530
   4   2.0000     -55.688089     -1515.3499
   5   2.0000      -9.946162      -270.6488
   6   2.0000      -9.914381      -269.7840
   7   2.0000      -9.900984      -269.4195
   8   2.0000      -9.900972      -269.4191
   9   2.0000      -9.900852      -269.4159
  10   2.0000      -9.900450      -269.4049
  11   2.0000      -9.900420      -269.4041
  12   2.0000      -8.385804      -228.1893
  13   2.0000      -6.268029      -170.5617
  14   2.0000      -6.253230      -170.1590
  15   2.0000      -6.253190      -170.1580
  16   2.0000      -2.469054       -67.1864
  17   2.0000      -2.465379       -67.0864
  18   2.0000      -2.465332       -67.0851
  19   2.0000      -2.454304       -66.7850
  20   2.0000      -2.454288       -66.7846
  21   2.0000      -0.790939       -21.5225
  22   2.0000      -0.735179       -20.0052
  23   2.0000      -0.679463       -18.4891
  24   2.0000      -0.678269       -18.4566
  25   2.0000      -0.604000       -16.4357
  26   2.0000      -0.553716       -15.0674
  27   2.0000      -0.530559       -14.4372
  28   2.0000      -0.473119       -12.8742
  29   2.0000      -0.432512       -11.7693
  30   2.0000      -0.414988       -11.2924
  31   2.0000      -0.385529       -10.4908
  32   2.0000      -0.384589       -10.4652
  33   2.0000      -0.371416       -10.1067
  34   2.0000      -0.368261       -10.0209
  35   2.0000      -0.327438        -8.9100
  36   2.0000      -0.314908        -8.5691
  37   2.0000      -0.308522        -8.3953
  38   2.0000      -0.241808        -6.5799
  39   2.0000      -0.240406        -6.5418
  40   2.0000      -0.230877        -6.2825
  41   2.0000      -0.224599        -6.1117
  42   0.0000      -0.067947        -1.8489
  43   0.0000      -0.043162        -1.1745
  44   0.0000      -0.006891        -0.1875
  45   0.0000       0.035252         0.9593
  46   0.0000       0.059984         1.6322

MULLIKEN ATOMIC CHARGES
-----------------------
   0 C :   -0.044481
   1 C :   -0.048755
   2 C :   -0.090464
   3 C :    0.094604
   4 C :   -0.090610
   5 C :   -0.048743
   6 C :   -0.201837
   7 Br:   -0.123477
   8 H :    0.058632
   9 H :    0.057442
  10 H :    0.047435
  11 H :    0.047421
  12 H :    0.057424
  13 H :    0.142732
  14 H :    0.142675
Sum of atomic charges:    0.0000000

LOEWDIN ATOMIC CHARGES
----------------------
   0 C :   -0.117669
   1 C :   -0.118179
   2 C :   -0.108622
   3 C :   -0.069608
   4 C :   -0.108679
   5 C :   -0.118190
   6 C :   -0.252309
   7 Br:   -0.005362
   8 H :    0.125889
   9 H :    0.126283
  10 H :    0.125920
  11 H :    0.125912
  12 H :    0.126280
  13 H :    0.134181
  14 H :    0.134152

  Mayer bond orders larger than 0.100000
B(  0-C ,  1-C ) :   1.3769 B(  0-C ,  5-C ) :   1.3771 B(  0-C ,  8-H ) :   0.9649
B(  1-C ,  2-C ) :   1.3824 B(  1-C ,  9-H ) :   0.9636 B(  2-C ,  3-C ) :   1.3754
B(  2-C , 10-H ) :   0.9634 B(  3-C ,  4-C ) :   1.3757 B(  3-C ,  6-C ) :   1.0689
B(  4-C ,  5-C ) :   1.3823 B(  4-C , 11-H ) :   0.9633 B(  5-C , 12-H ) :   0.9636
B(  6-C ,  7-Br) :   1.0205 B(  6-C , 13-H ) :   0.9153 B(  6-C , 14-H ) :   0.9153

Dispersion correction           -0.016725641
FINAL SINGLE POINT ENERGY     -2843.806369831591

DIPOLE MOMENT
-------------

Method             : SCF
Type of density    : Electron Density
Multiplicity       :   1
Irrep              :   0
Energy             : -2843.8495230780963539 Eh
Relativity type    :
Basis              : AO
                                X                 Y                 Z
Electronic contribution:     27.877460469      -0.012886447      -4.369854343
Nuclear contribution   :    -28.546051023       0.014122396       4.763308550
                        -----------------------------------------
Total Dipole Moment    :     -0.668590554       0.001235949       0.393454207
                        -----------------------------------------
Magnitude (a.u.)       :      0.775771274
Magnitude (Debye)      :      1.971853872

Rotational constants in cm-1:             0.129318             0.022110             0.020802
Rotational constants in MHz :          3876.860303           662.834099           623.619274

                             ****ORCA TERMINATED NORMALLY****
TOTAL RUN TIME: 0 days 0 hours 0 minutes 7 seconds 560 msec
