                         Program Version 6.0.0  -   RELEASE  -
|  1> ! wb97x-v def2-tzvp def2/J RIJCOSX DEFGRID2 scfconv7 GCP(DFT/TZ) printgap
|  2> %output
|  3>     printlevel normal
|  4> end
|  5> * xyz 0 1
|  6> C -2.5810476764815347 -0.8710445303405494 0.36908342598177457
|  7> C -1.1523248228799732 -0.42596343374357587 0.6176997391566461
|  8> H -0.9997221921410061 -0.3549567081782503 1.707537461821131
|  9> C -0.8036195337838177 0.9146125142325239 -0.026266013673592346
| 10> H -0.9813281223789138 0.8482345355647049 -1.1111417775220407
| 11> C 0.6679240384569459 1.2430150159839022 0.21293436808936675
| 12> H 0.8300497164889753 1.3892643046275428 1.2887253206623448
| 13> C 1.5471720478485214 0.09799527988585384 -0.26922650299972467
| 14> H 1.4494226777863928 -0.005371881046805447 -1.3635954527060727
| 15> C 1.0863745715013953 -1.2125151811383073 0.3755266424477427
| 16> H 1.2247207457988383 -1.17307263411271 1.4663520869177762
| 17> O -0.2923855507463007 -1.4425668289463864 0.0707471838358746
| 18> O 1.821887885556807 -2.316469282703156 -0.08245793310318364
| 19> O 2.895971747844991 0.39236393617794996 0.09391852810354805
| 20> O 1.017055637393304 2.490842107754351 -0.39812005366772363
| 21> O -1.6468946369193607 1.9105636738005092 0.5570292379244248
| 22> O -2.9158967299467538 -0.938965251973423 -1.0215520386682777
| 23> H -3.264830665569641 -0.1500273087343137 0.8236337297326655
| 24> H -2.734704830570618 -1.8448626344780992 0.8532653291631088
| 25> H 1.82891416692828 -2.295145805650947 -1.0520683744989097
| 26> H 3.455198854008087 -0.30229887574482206 -0.27851317200632386
| 27> H 0.918464647180295 2.386808777508747 -1.3557897948186228
| 28> H -1.3342159405997567 2.766734199459528 0.23251591675572972
| 29> H -2.3505439695298254 -1.6124453518028898 -1.4223156407287028
| 30> *
| 31>
| 32>                          ****END OF INPUT****

CARTESIAN COORDINATES (ANGSTROEM)
---------------------------------
  C     -2.581048   -0.871045    0.369083
  C     -1.152325   -0.425963    0.617700
  H     -0.999722   -0.354957    1.707537
  C     -0.803620    0.914613   -0.026266
  H     -0.981328    0.848235   -1.111142
  C      0.667924    1.243015    0.212934
  H      0.830050    1.389264    1.288725
  C      1.547172    0.097995   -0.269227
  H      1.449423   -0.005372   -1.363595
  C      1.086375   -1.212515    0.375527
  H      1.224721   -1.173073    1.466352
  O     -0.292386   -1.442567    0.070747
  O      1.821888   -2.316469   -0.082458
  O      2.895972    0.392364    0.093919
  O      1.017056    2.490842   -0.398120
  O     -1.646895    1.910564    0.557029
  O     -2.915897   -0.938965   -1.021552
  H     -3.264831   -0.150027    0.823634
  H     -2.734705   -1.844863    0.853265
  H      1.828914   -2.295146   -1.052068
  H      3.455199   -0.302299   -0.278513
  H      0.918465    2.386809   -1.355790
  H     -1.334216    2.766734    0.232516
  H     -2.350544   -1.612445   -1.422316

 Total Charge           Charge          ....    0
 Multiplicity           Mult            ....    1
 Number of Electrons    NEL             ....   96
 Basis Dimension        Dim             ....  444

ORBITAL ENERGIES
----------------

  NO   OCC          E(Eh)            E(eV)
   0   2.0000     -21.705792      -590.6446
   1   2.0000     -21.699219      -590.4658
   2   2.0000     -21.692369      -590.2794
   3   2.0000     -21.690668      -590.2331
   4   2.0000     -21.682369      -590.0073
   5   2.0000     -21.675397      -589.8175
   6   2.0000     -12.166673      -331.0720
   7   2.0000     -12.121873      -329.8529
   8   2.0000     -12.115392      -329.6766
   9   2.0000     -12.115260      -329.6730
  10   2.0000     -12.110773      -329.5509
  11   2.0000     -12.097486      -329.1893
  12   2.0000      -1.734215       -47.1904
  13   2.0000      -1.698553       -46.2200
  14   2.0000      -1.693880       -46.0928
  15   2.0000      -1.689583       -45.9759
  16   2.0000      -1.682778       -45.7907
  17   2.0000      -1.674846       -45.5749
  18   2.0000      -1.343663       -36.5629
  19   2.0000      -1.329118       -36.1672
  20   2.0000      -1.238701       -33.7068
  21   2.0000      -1.211430       -32.9647
  22   2.0000      -1.174242       -31.9527
  23   2.0000      -1.138208       -30.9722
  24   2.0000      -1.098008       -29.8783
  25   2.0000      -1.077817       -29.3289
  26   2.0000      -1.060571       -28.8596
  27   2.0000      -1.044805       -28.4306
  28   2.0000      -1.029270       -28.0079
  29   2.0000      -1.017219       -27.6799
  30   2.0000      -1.003475       -27.3059
  31   2.0000      -0.994009       -27.0484
  32   2.0000      -0.986563       -26.8457
  33   2.0000      -0.967600       -26.3297
  34   2.0000      -0.963680       -26.2231
  35   2.0000      -0.954956       -25.9857
  36   2.0000      -0.943539       -25.6750
  37   2.0000      -0.939030       -25.5523
  38   2.0000      -0.930475       -25.3195
  39   2.0000      -0.916723       -24.9453
  40   2.0000      -0.906310       -24.6619
  41   2.0000      -0.895208       -24.3599
  42   2.0000      -0.846228       -23.0270
  43   2.0000      -0.840994       -22.8846
  44   2.0000      -0.830659       -22.6034
  45   2.0000      -0.809723       -22.0337
  46   2.0000      -0.803210       -21.8565
  47   2.0000      -0.782431       -21.2910
  48   0.0000      -0.245550        -6.6818
  49   0.0000      -0.204637        -5.5685
  50   0.0000      -0.184054        -5.0084
  51   0.0000      -0.156748        -4.2653
  52   0.0000      -0.137873        -3.7517

MULLIKEN ATOMIC CHARGES
-----------------------
   0 C :    0.003522
   1 C :   -0.001792
   2 H :    0.078212
   3 C :    0.085259
   4 H :    0.062217
   5 C :    0.052307
   6 H :    0.103157
   7 C :   -0.001188
   8 H :    0.066536
   9 C :    0.087994
  10 H :    0.093873
  11 O :   -0.263337
  12 O :   -0.403645
  13 O :   -0.396230
  14 O :   -0.423847
  15 O :   -0.440736
  16 O :   -0.458743
  17 H :    0.117762
  18 H :    0.107639
  19 H :    0.305524
  20 H :    0.305638
  21 H :    0.299400
  22 H :    0.313181
  23 H :    0.307299
Sum of atomic charges:    0.0000000

LOEWDIN ATOMIC CHARGES
----------------------
   0 C :   -0.306518
   1 C :   -0.299035
   2 H :    0.148343
   3 C :   -0.313560
   4 H :    0.138375
   5 C :   -0.309906
   6 H :    0.156760
   7 C :   -0.331296
   8 H :    0.133292
   9 C :   -0.406563
  10 H :    0.137133
  11 O :    0.178528
  12 O :    0.011242
  13 O :    0.001155
  14 O :   -0.009727
  15 O :   -0.007164
  16 O :   -0.044782
  17 H :    0.137639
  18 H :    0.122393
  19 H :    0.175764
  20 H :    0.171693
  21 H :    0.171521
  22 H :    0.175586
  23 H :    0.169129

  Mayer bond orders larger than 0.100000
B(  0-C ,  1-C ) :   0.9778 B(  0-C , 16-O ) :   0.9861 B(  0-C , 17-H ) :   0.9631
B(  0-C , 18-H ) :   0.9789 B(  1-C ,  2-H ) :   0.9517 B(  1-C ,  3-C ) :   0.9459
B(  1-C , 11-O ) :   0.9853 B(  1-C , 16-O ) :   0.1235 B(  3-C ,  4-H ) :   0.9399
B(  3-C ,  5-C ) :   0.9754 B(  3-C , 15-O ) :   1.0703 B(  5-C ,  6-H ) :   0.9519
B(  5-C ,  7-C ) :   0.9847 B(  5-C , 14-O ) :   0.9976 B(  7-C ,  8-H ) :   0.9379
B(  7-C ,  9-C ) :   0.9566 B(  7-C , 13-O ) :   1.1482 B(  9-C , 10-H ) :   0.9784
B(  9-C , 11-O ) :   1.0396 B(  9-C , 12-O ) :   1.1226 B( 12-O , 19-H ) :   0.8890
B( 13-O , 20-H ) :   0.8905 B( 14-O , 21-H ) :   0.8939 B( 15-O , 22-H ) :   0.8819
B( 16-O , 23-H ) :   0.8940

FINAL SINGLE POINT ENERGY      -687.244524115221

DIPOLE MOMENT
-------------

Method             : SCF
Type of density    : Electron Density
Multiplicity       :   1
Irrep              :   0
Energy             :  -687.2634234327207423 Eh
Relativity type    :
Basis              : AO
                                X                 Y                 Z
Electronic contribution:      2.144321431      -0.162162445      -0.434919835
Nuclear contribution   :     -1.651956436      -0.206651595      -0.378148518
                        -----------------------------------------
Total Dipole Moment    :      0.492364995      -0.368814040      -0.813068353
                        -----------------------------------------
Magnitude (a.u.)       :      1.019572082
Magnitude (Debye)      :      2.591546279

Rotational constants in cm-1:             0.039246             0.026516             0.017466
Rotational constants in MHz :          1176.573026           794.919751           523.629906

                             ****ORCA TERMINATED NORMALLY****
TOTAL RUN TIME: 0 days 0 hours 4 minutes 51 seconds 552 msec
