                         Program Version 6.0.0  -   RELEASE  -
|  1> ! wb97x-v def2-tzvp def2/J RIJCOSX DEFGRID2 scfconv7 GCP(DFT/TZ) printgap
|  2> %output
|  3>     printlevel normal
|  4> end
|  5> %cpcm
|  6>     smd true
|  7>     smdsolvent "water"
|  8> end
|  9> * xyz 0 1
| 10> C -2.5810476764815347 -0.8710445303405494 0.36908342598177457
| 11> C -1.1523248228799732 -0.42596343374357587 0.6176997391566461
| 12> H -0.9997221921410061 -0.3549567081782503 1.707537461821131
| 13> C -0.8036195337838177 0.9146125142325239 -0.026266013673592346
| 14> H -0.9813281223789138 0.8482345355647049 -1.1111417775220407
| 15> C 0.6679240384569459 1.2430150159839022 0.21293436808936675
| 16> H 0.8300497164889753 1.3892643046275428 1.2887253206623448
| 17> C 1.5471720478485214 0.09799527988585384 -0.26922650299972467
| 18> H 1.4494226777863928 -0.005371881046805447 -1.3635954527060727
| 19> C 1.0863745715013953 -1.2125151811383073 0.3755266424477427
| 20> H 1.2247207457988383 -1.17307263411271 1.4663520869177762
| 21> O -0.2923855507463007 -1.4425668289463864 0.0707471838358746
| 22> O 1.821887885556807 -2.316469282703156 -0.08245793310318364
| 23> O 2.895971747844991 0.39236393617794996 0.09391852810354805
| 24> O 1.017055637393304 2.490842107754351 -0.39812005366772363
| 25> O -1.6468946369193607 1.9105636738005092 0.5570292379244248
| 26> O -2.9158967299467538 -0.938965251973423 -1.0215520386682777
| 27> H -3.264830665569641 -0.1500273087343137 0.8236337297326655
| 28> H -2.734704830570618 -1.8448626344780992 0.8532653291631088
| 29> H 1.82891416692828 -2.295145805650947 -1.0520683744989097
| 30> H 3.455198854008087 -0.30229887574482206 -0.27851317200632386
| 31> H 0.918464647180295 2.386808777508747 -1.3557897948186228
| 32> H -1.3342159405997567 2.766734199459528 0.23251591675572972
| 33> H -2.3505439695298254 -1.6124453518028898 -1.4223156407287028
| 34> *
| 35>
| 36>                          ****END OF INPUT****

CARTESIAN COORDINATES (ANGSTROEM)
---------------------------------
  C     -2.581048   -0.871045    0.369083
  C     -1.152325   -0.425963    0.617700
  H     -0.999722   -0.354957    1.707537
  C     -0.803620    0.914613   -0.026266
  H     -0.981328    0.848235   -1.111142
  C      0.667924    1.243015    0.212934
  H      0.830050    1.389264    1.288725
  C      1.547172    0.097995   -0.269227
  H      1.449423   -0.005372   -1.363595
  C      1.086375   -1.212515    0.375527
  H      1.224721   -1.173073    1.466352
  O     -0.292386   -1.442567    0.070747
  O      1.821888   -2.316469   -0.082458
  O      2.895972    0.392364    0.093919
  O      1.017056    2.490842   -0.398120
  O     -1.646895    1.910564    0.557029
  O     -2.915897   -0.938965   -1.021552
  H     -3.264831   -0.150027    0.823634
  H     -2.734705   -1.844863    0.853265
  H      1.828914   -2.295146   -1.052068
  H      3.455199   -0.302299   -0.278513
  H      0.918465    2.386809   -1.355790
  H     -1.334216    2.766734    0.232516
  H     -2.350544   -1.612445   -1.422316

 Total Charge           Charge          ....    0
 Multiplicity           Mult            ....    1
 Number of Electrons    NEL             ....   96
 Basis Dimension        Dim             ....  444

ORBITAL ENERGIES
----------------

  NO   OCC          E(Eh)            E(eV)
   0   2.0000     -21.692828      -590.2919
   1   2.0000     -21.692002      -590.2694
   2   2.0000     -21.683289      -590.0323
   3   2.0000     -21.683172      -590.0291
   4   2.0000     -21.680899      -589.9672
   5   2.0000     -21.677538      -589.8758
   6   2.0000     -12.152420      -330.6842
   7   2.0000     -12.104180      -329.3715
   8   2.0000     -12.104033      -329.3675
   9   2.0000     -12.102746      -329.3325
  10   2.0000     -12.099973      -329.2570
  11   2.0000     -12.091389      -329.0234
  12   2.0000      -1.723824       -46.9076
  13   2.0000      -1.690889       -46.0114
  14   2.0000      -1.687006       -45.9058
  15   2.0000      -1.681587       -45.7583
  16   2.0000      -1.678706       -45.6799
  17   2.0000      -1.676188       -45.6114
  18   2.0000      -1.332099       -36.2483
  19   2.0000      -1.317957       -35.8634
  20   2.0000      -1.230078       -33.4721
  21   2.0000      -1.201648       -32.6985
  22   2.0000      -1.166715       -31.7479
  23   2.0000      -1.129710       -30.7410
  24   2.0000      -1.089793       -29.6548
  25   2.0000      -1.069696       -29.1079
  26   2.0000      -1.051636       -28.6165
  27   2.0000      -1.041753       -28.3475
  28   2.0000      -1.022624       -27.8270
  29   2.0000      -1.009873       -27.4800
  30   2.0000      -0.995748       -27.0957
  31   2.0000      -0.988919       -26.9098
  32   2.0000      -0.980438       -26.6791
  33   2.0000      -0.965743       -26.2792
  34   2.0000      -0.958302       -26.0767
  35   2.0000      -0.951664       -25.8961
  36   2.0000      -0.941974       -25.6324
  37   2.0000      -0.933232       -25.3945
  38   2.0000      -0.923063       -25.1178
  39   2.0000      -0.910771       -24.7833
  40   2.0000      -0.900717       -24.5098
  41   2.0000      -0.888677       -24.1821
  42   2.0000      -0.837918       -22.8009
  43   2.0000      -0.835484       -22.7347
  44   2.0000      -0.819142       -22.2900
  45   2.0000      -0.798531       -21.7291
  46   2.0000      -0.794667       -21.6240
  47   2.0000      -0.769978       -20.9522
  48   0.0000      -0.234179        -6.3723
  49   0.0000      -0.192720        -5.2442
  50   0.0000      -0.172171        -4.6850
  51   0.0000      -0.148508        -4.0411
  52   0.0000      -0.125922        -3.4265

MULLIKEN ATOMIC CHARGES
-----------------------
   0 C :   -0.013801
   1 C :    0.052722
   2 H :    0.110998
   3 C :    0.035383
   4 H :    0.097594
   5 C :    0.122643
   6 H :    0.117503
   7 C :    0.006568
   8 H :    0.123291
   9 C :    0.106559
  10 H :    0.118576
  11 O :   -0.327889
  12 O :   -0.495299
  13 O :   -0.515634
  14 O :   -0.530232
  15 O :   -0.530162
  16 O :   -0.554948
  17 H :    0.130028
  18 H :    0.131956
  19 H :    0.371076
  20 H :    0.362329
  21 H :    0.362821
  22 H :    0.358112
  23 H :    0.359806
Sum of atomic charges:   -0.0000000

LOEWDIN ATOMIC CHARGES
----------------------
   0 C :   -0.307863
   1 C :   -0.294596
   2 H :    0.159360
   3 C :   -0.305910
   4 H :    0.147503
   5 C :   -0.308480
   6 H :    0.159322
   7 C :   -0.315157
   8 H :    0.154278
   9 C :   -0.404721
  10 H :    0.143759
  11 O :    0.161771
  12 O :   -0.019128
  13 O :   -0.039386
  14 O :   -0.046212
  15 O :   -0.039937
  16 O :   -0.081858
  17 H :    0.137650
  18 H :    0.129930
  19 H :    0.201697
  20 H :    0.192648
  21 H :    0.196918
  22 H :    0.190278
  23 H :    0.188135

  Mayer bond orders larger than 0.100000
B(  0-C ,  1-C ) :   0.9635 B(  0-C , 16-O ) :   0.9629 B(  0-C , 17-H ) :   0.9669
B(  0-C , 18-H ) :   0.9802 B(  1-C ,  2-H ) :   0.9451 B(  1-C ,  3-C ) :   0.9643
B(  1-C , 11-O ) :   0.9624 B(  3-C ,  4-H ) :   0.9519 B(  3-C ,  5-C ) :   0.9922
B(  3-C , 15-O ) :   1.0214 B(  5-C ,  6-H ) :   0.9365 B(  5-C ,  7-C ) :   0.9811
B(  5-C , 14-O ) :   0.9818 B(  7-C ,  8-H ) :   0.9567 B(  7-C ,  9-C ) :   0.9688
B(  7-C , 13-O ) :   1.0723 B(  9-C , 10-H ) :   0.9733 B(  9-C , 11-O ) :   1.0116
B(  9-C , 12-O ) :   1.1160 B( 12-O , 19-H ) :   0.8486 B( 13-O , 20-H ) :   0.8589
B( 14-O , 21-H ) :   0.8600 B( 15-O , 22-H ) :   0.8561 B( 16-O , 23-H ) :   0.8622

FINAL SINGLE POINT ENERGY      -687.287853985195

DIPOLE MOMENT
-------------

Method             : SCF
Type of density    : Electron Density
Multiplicity       :   1
Irrep              :   0
Energy             :  -687.3067533026946876 Eh
Relativity type    :
Basis              : AO
                                X                 Y                 Z
Electronic contribution:      2.328727633      -0.354845962      -0.821799778
Nuclear contribution   :     -1.651956436      -0.206651595      -0.378148518
                        -----------------------------------------
Total Dipole Moment    :      0.676771197      -0.561497557      -1.199948296
                        -----------------------------------------
Magnitude (a.u.)       :      1.487674250
Magnitude (Debye)      :      3.781367433

Rotational constants in cm-1:             0.039246             0.026516             0.017466
Rotational constants in MHz :          1176.573026           794.919751           523.629906

                             ****ORCA TERMINATED NORMALLY****
TOTAL RUN TIME: 0 days 0 hours 5 minutes 31 seconds 8 msec
