                         Program Version 6.0.0  -   RELEASE  -
|  1> ! wb97x-v def2-tzvp def2/J RIJCOSX DEFGRID2 scfconv7 GCP(DFT/TZ) printgap
|  2> %output
|  3>     printlevel normal
|  4> end
|  5> * xyz 0 1
|  6> C -1.959748181392826 0.6278599479661362 -0.00015997836565166681
|  7> C -1.9049374599041995 -0.7630044077796909 1.3503775296442808e-05
|  8> C -0.6674510191499904 -1.4066738781796675 0.00012063250531860592
|  9> C 0.4820450730913064 -0.6430865271904187 3.269194487906691e-05
| 10> C 0.4517498082569643 0.7517882947864893 -0.00014890884572589871
| 11> C -0.7897209599762417 1.3842741614014042 -0.00024142889846509743
| 12> O 1.6495525461639573 1.415075816530921 -0.000252970230235973
| 13> F 1.6950705803553514 -1.2543977791215757 0.00012410098035935398
| 14> H -2.9184168374319515 1.1356010041612405 -0.0002500250124210626
| 15> H -2.815904723685285 -1.350977806574381 7.01277180723178e-05
| 16> H -0.5851468971551966 -2.488419028118607 0.0002694260312544757
| 17> H -0.826349388768028 2.4701315776747776 -0.0004063969477185166
| 18> H 1.4757396247595587 2.3669603165849384 -0.00036539160092985087
| 19> *
| 20>
| 21>                          ****END OF INPUT****

CARTESIAN COORDINATES (ANGSTROEM)
---------------------------------
  C     -1.959748    0.627860   -0.000160
  C     -1.904937   -0.763004    0.000014
  C     -0.667451   -1.406674    0.000121
  C      0.482045   -0.643087    0.000033
  C      0.451750    0.751788   -0.000149
  C     -0.789721    1.384274   -0.000241
  O      1.649553    1.415076   -0.000253
  F      1.695071   -1.254398    0.000124
  H     -2.918417    1.135601   -0.000250
  H     -2.815905   -1.350978    0.000070
  H     -0.585147   -2.488419    0.000269
  H     -0.826349    2.470132   -0.000406
  H      1.475740    2.366960   -0.000365

 Total Charge           Charge          ....    0
 Multiplicity           Mult            ....    1
 Number of Electrons    NEL             ....   58
 Basis Dimension        Dim             ....  278

ORBITAL ENERGIES
----------------

  NO   OCC          E(Eh)            E(eV)
   0   2.0000     -27.569247      -750.1974
   1   2.0000     -21.715070      -590.8971
   2   2.0000     -12.135187      -330.2152
   3   2.0000     -12.126216      -329.9711
   4   2.0000     -12.066218      -328.3385
   5   2.0000     -12.064434      -328.2899
   6   2.0000     -12.063003      -328.2510
   7   2.0000     -12.058907      -328.1395
   8   2.0000      -1.987130       -54.0725
   9   2.0000      -1.730159       -47.0800
  10   2.0000      -1.406045       -38.2604
  11   2.0000      -1.311686       -35.6928
  12   2.0000      -1.297072       -35.2951
  13   2.0000      -1.211769       -32.9739
  14   2.0000      -1.179763       -32.1030
  15   2.0000      -1.131971       -30.8025
  16   2.0000      -1.128193       -30.6997
  17   2.0000      -1.096783       -29.8450
  18   2.0000      -1.073288       -29.2056
  19   2.0000      -1.012425       -27.5495
  20   2.0000      -0.959719       -26.1153
  21   2.0000      -0.952886       -25.9294
  22   2.0000      -0.940765       -25.5995
  23   2.0000      -0.908173       -24.7126
  24   2.0000      -0.853708       -23.2306
  25   2.0000      -0.837054       -22.7774
  26   2.0000      -0.786378       -21.3984
  27   2.0000      -0.661460       -17.9992
  28   2.0000      -0.651891       -17.7388
  29   0.0000      -0.262617        -7.1462
  30   0.0000      -0.258092        -7.0230
  31   0.0000      -0.242390        -6.5958
  32   0.0000      -0.126735        -3.4486
  33   0.0000      -0.083488        -2.2718

MULLIKEN ATOMIC CHARGES
-----------------------
   0 C :   -0.133869
   1 C :   -0.135755
   2 C :   -0.160340
   3 C :    0.186500
   4 C :    0.179346
   5 C :   -0.182867
   6 O :   -0.375951
   7 F :   -0.188037
   8 H :    0.122825
   9 H :    0.123593
  10 H :    0.132843
  11 H :    0.116025
  12 H :    0.315686
Sum of atomic charges:    0.0000000

LOEWDIN ATOMIC CHARGES
----------------------
   0 C :   -0.144639
   1 C :   -0.149219
   2 C :   -0.114690
   3 C :   -0.229398
   4 C :   -0.250384
   5 C :   -0.138794
   6 O :    0.082180
   7 F :    0.174274
   8 H :    0.143937
   9 H :    0.143028
  10 H :    0.151958
  11 H :    0.142286
  12 H :    0.189462

  Mayer bond orders larger than 0.100000
B(  0-C ,  1-C ) :   1.4643 B(  0-C ,  5-C ) :   1.4322 B(  0-C ,  8-H ) :   0.9620
B(  1-C ,  2-C ) :   1.3774 B(  1-C ,  9-H ) :   0.9670 B(  2-C ,  3-C ) :   1.4805
B(  2-C , 10-H ) :   0.9673 B(  3-C ,  4-C ) :   1.3285 B(  3-C ,  7-F ) :   1.1143
B(  4-C ,  5-C ) :   1.3646 B(  4-C ,  6-O ) :   1.2004 B(  5-C , 11-H ) :   0.9502
B(  6-O , 12-H ) :   0.8862

FINAL SINGLE POINT ENERGY      -406.730863177678

DIPOLE MOMENT
-------------

Method             : SCF
Type of density    : Electron Density
Multiplicity       :   1
Irrep              :   0
Energy             :  -406.7381079914779889 Eh
Relativity type    :
Basis              : AO
                                X                 Y                 Z
Electronic contribution:      6.052178570      -2.441735935       0.000418452
Nuclear contribution   :     -6.871533125       3.172021660      -0.000523386
                        -----------------------------------------
Total Dipole Moment    :     -0.819354556       0.730285725      -0.000104934
                        -----------------------------------------
Magnitude (a.u.)       :      1.097569651
Magnitude (Debye)      :      2.789800344

Rotational constants in cm-1:             0.109936             0.074671             0.044468
Rotational constants in MHz :          3295.802886          2238.584414          1333.107456

                             ****ORCA TERMINATED NORMALLY****
TOTAL RUN TIME: 0 days 0 hours 1 minutes 46 seconds 536 msec
