                         Program Version 6.0.0  -   RELEASE  -
|  1> ! wb97x-v def2-tzvp def2/J RIJCOSX DEFGRID2 scfconv7 GCP(DFT/TZ) printgap
|  2> %output
|  3>     printlevel normal
|  4> end
|  5> %cpcm
|  6>     smd true
|  7>     smdsolvent "water"
|  8> end
|  9> * xyz 0 1
| 10> C -1.959748181392826 0.6278599479661362 -0.00015997836565166681
| 11> C -1.9049374599041995 -0.7630044077796909 1.3503775296442808e-05
| 12> C -0.6674510191499904 -1.4066738781796675 0.00012063250531860592
| 13> C 0.4820450730913064 -0.6430865271904187 3.269194487906691e-05
| 14> C 0.4517498082569643 0.7517882947864893 -0.00014890884572589871
| 15> C -0.7897209599762417 1.3842741614014042 -0.00024142889846509743
| 16> O 1.6495525461639573 1.415075816530921 -0.000252970230235973
| 17> F 1.6950705803553514 -1.2543977791215757 0.00012410098035935398
| 18> H -2.9184168374319515 1.1356010041612405 -0.0002500250124210626
| 19> H -2.815904723685285 -1.350977806574381 7.01277180723178e-05
| 20> H -0.5851468971551966 -2.488419028118607 0.0002694260312544757
| 21> H -0.826349388768028 2.4701315776747776 -0.0004063969477185166
| 22> H 1.4757396247595587 2.3669603165849384 -0.00036539160092985087
| 23> *
| 24>
| 25>                          ****END OF INPUT****

CARTESIAN COORDINATES (ANGSTROEM)
---------------------------------
  C     -1.959748    0.627860   -0.000160
  C     -1.904937   -0.763004    0.000014
  C     -0.667451   -1.406674    0.000121
  C      0.482045   -0.643087    0.000033
  C      0.451750    0.751788   -0.000149
  C     -0.789721    1.384274   -0.000241
  O      1.649553    1.415076   -0.000253
  F      1.695071   -1.254398    0.000124
  H     -2.918417    1.135601   -0.000250
  H     -2.815905   -1.350978    0.000070
  H     -0.585147   -2.488419    0.000269
  H     -0.826349    2.470132   -0.000406
  H      1.475740    2.366960   -0.000365

 Total Charge           Charge          ....    0
 Multiplicity           Mult            ....    1
 Number of Electrons    NEL             ....   58
 Basis Dimension        Dim             ....  278

ORBITAL ENERGIES
----------------

  NO   OCC          E(Eh)            E(eV)
   0   2.0000     -27.579176      -750.4675
   1   2.0000     -21.708969      -590.7311
   2   2.0000     -12.133650      -330.1734
   3   2.0000     -12.122045      -329.8576
   4   2.0000     -12.059121      -328.1454
   5   2.0000     -12.056630      -328.0776
   6   2.0000     -12.054552      -328.0210
   7   2.0000     -12.051637      -327.9417
   8   2.0000      -1.998006       -54.3685
   9   2.0000      -1.724312       -46.9209
  10   2.0000      -1.402723       -38.1700
  11   2.0000      -1.310783       -35.6682
  12   2.0000      -1.291544       -35.1447
  13   2.0000      -1.214912       -33.0594
  14   2.0000      -1.177781       -32.0491
  15   2.0000      -1.140142       -31.0248
  16   2.0000      -1.137097       -30.9420
  17   2.0000      -1.092719       -29.7344
  18   2.0000      -1.068223       -29.0678
  19   2.0000      -1.009874       -27.4801
  20   2.0000      -0.956401       -26.0250
  21   2.0000      -0.948465       -25.8090
  22   2.0000      -0.931977       -25.3604
  23   2.0000      -0.897457       -24.4210
  24   2.0000      -0.844566       -22.9818
  25   2.0000      -0.827518       -22.5179
  26   2.0000      -0.783308       -21.3149
  27   2.0000      -0.657778       -17.8990
  28   2.0000      -0.647582       -17.6216
  29   0.0000      -0.259212        -7.0535
  30   0.0000      -0.252445        -6.8694
  31   0.0000      -0.242430        -6.5969
  32   0.0000      -0.121294        -3.3006
  33   0.0000      -0.078240        -2.1290

MULLIKEN ATOMIC CHARGES
-----------------------
   0 C :   -0.159033
   1 C :   -0.187501
   2 C :   -0.197844
   3 C :    0.191751
   4 C :    0.201725
   5 C :   -0.236094
   6 O :   -0.464573
   7 F :   -0.216953
   8 H :    0.167471
   9 H :    0.167297
  10 H :    0.171413
  11 H :    0.177755
  12 H :    0.384586
Sum of atomic charges:    0.0000000

LOEWDIN ATOMIC CHARGES
----------------------
   0 C :   -0.148810
   1 C :   -0.156363
   2 C :   -0.121283
   3 C :   -0.243011
   4 C :   -0.256385
   5 C :   -0.129033
   6 O :    0.055124
   7 F :    0.154651
   8 H :    0.154130
   9 H :    0.152711
  10 H :    0.161573
  11 H :    0.160004
  12 H :    0.216692

  Mayer bond orders larger than 0.100000
B(  0-C ,  1-C ) :   1.4294 B(  0-C ,  5-C ) :   1.3929 B(  0-C ,  8-H ) :   0.9634
B(  1-C ,  2-C ) :   1.3663 B(  1-C ,  9-H ) :   0.9686 B(  2-C ,  3-C ) :   1.4605
B(  2-C , 10-H ) :   0.9686 B(  3-C ,  4-C ) :   1.3310 B(  3-C ,  7-F ) :   1.0766
B(  4-C ,  5-C ) :   1.3645 B(  4-C ,  6-O ) :   1.1329 B(  5-C , 11-H ) :   0.9560
B(  6-O , 12-H ) :   0.8431

FINAL SINGLE POINT ENERGY      -406.741031317675

DIPOLE MOMENT
-------------

Method             : SCF
Type of density    : Electron Density
Multiplicity       :   1
Irrep              :   0
Energy             :  -406.7482761314747108 Eh
Relativity type    :
Basis              : AO
                                X                 Y                 Z
Electronic contribution:      5.739413343      -2.137764356       0.000376625
Nuclear contribution   :     -6.871533125       3.172021660      -0.000523386
                        -----------------------------------------
Total Dipole Moment    :     -1.132119782       1.034257304      -0.000146761
                        -----------------------------------------
Magnitude (a.u.)       :      1.533422118
Magnitude (Debye)      :      3.897649273

Rotational constants in cm-1:             0.109936             0.074671             0.044468
Rotational constants in MHz :          3295.802886          2238.584414          1333.107456

                             ****ORCA TERMINATED NORMALLY****
TOTAL RUN TIME: 0 days 0 hours 1 minutes 56 seconds 947 msec
