                         Program Version 6.0.0  -   RELEASE  -
|  1> ! wb97x-v def2-tzvp def2/J RIJCOSX DEFGRID2 scfconv7 GCP(DFT/TZ) printgap
|  2> %output
|  3>     printlevel normal
|  4> end
|  5> * xyz 0 1
|  6> C -1.7396365210992124 -0.8124954459857016 0.003618767837171763
|  7> C -0.4925090897527733 0.0037619342629756367 -0.33747091516231026
|  8> C -0.6468290173464387 1.4557080402401887 0.11121086877031164
|  9> C 0.7263406061149951 -0.6552016240683979 0.3022540455571569
| 10> O 1.9673287523206366 0.00038599499398532186 -0.018651737305928767
| 11> H -1.6546438809451807 -1.845263067227425 -0.35173306379676406
| 12> H -2.630831393234055 -0.37023192088535445 -0.4530345276629744
| 13> H -1.8979749300018243 -0.8393265685251098 1.088712546953388
| 14> H -0.3470462056357201 -0.018397547419342096 -1.4279425842735531
| 15> H 0.23356279561446947 2.05320937423281 -0.14286221195182114
| 16> H -0.7899050407692169 1.5065573695478256 1.1975058171707544
| 17> H -1.5165677506258493 1.9199980329459863 -0.3647835013399425
| 18> H 0.641183513462983 -0.6124123963465237 1.3949093352716027
| 19> H 0.7756725958673325 -1.713798392179356 0.007354049312004463
| 20> H 2.071783385277922 -0.04423650484997517 -0.9779227542045223
| 21> *
| 22>
| 23>                          ****END OF INPUT****

CARTESIAN COORDINATES (ANGSTROEM)
---------------------------------
  C     -1.739637   -0.812495    0.003619
  C     -0.492509    0.003762   -0.337471
  C     -0.646829    1.455708    0.111211
  C      0.726341   -0.655202    0.302254
  O      1.967329    0.000386   -0.018652
  H     -1.654644   -1.845263   -0.351733
  H     -2.630831   -0.370232   -0.453035
  H     -1.897975   -0.839327    1.088713
  H     -0.347046   -0.018398   -1.427943
  H      0.233563    2.053209   -0.142862
  H     -0.789905    1.506557    1.197506
  H     -1.516568    1.919998   -0.364784
  H      0.641184   -0.612412    1.394909
  H      0.775673   -1.713798    0.007354
  H      2.071783   -0.044237   -0.977923

 Total Charge           Charge          ....    0
 Multiplicity           Mult            ....    1
 Number of Electrons    NEL             ....   42
 Basis Dimension        Dim             ....  215

ORBITAL ENERGIES
----------------

  NO   OCC          E(Eh)            E(eV)
   0   2.0000     -21.668426      -589.6278
   1   2.0000     -12.088413      -328.9424
   2   2.0000     -12.052374      -327.9618
   3   2.0000     -12.039064      -327.5996
   4   2.0000     -12.031311      -327.3886
   5   2.0000      -1.666701       -45.3532
   6   2.0000      -1.316370       -35.8202
   7   2.0000      -1.192538       -32.4506
   8   2.0000      -1.178088       -32.0574
   9   2.0000      -1.071634       -29.1606
  10   2.0000      -1.001386       -27.2491
  11   2.0000      -0.954744       -25.9799
  12   2.0000      -0.930557       -25.3218
  13   2.0000      -0.883668       -24.0458
  14   2.0000      -0.850514       -23.1437
  15   2.0000      -0.843540       -22.9539
  16   2.0000      -0.812311       -22.1041
  17   2.0000      -0.805481       -21.9183
  18   2.0000      -0.782090       -21.2817
  19   2.0000      -0.770188       -20.9579
  20   2.0000      -0.752973       -20.4894
  21   0.0000      -0.144542        -3.9332
  22   0.0000      -0.052507        -1.4288
  23   0.0000      -0.018020        -0.4903
  24   0.0000      -0.010868        -0.2957
  25   0.0000      -0.005854        -0.1593

MULLIKEN ATOMIC CHARGES
-----------------------
   0 C :   -0.356187
   1 C :   -0.059795
   2 C :   -0.316608
   3 C :   -0.018211
   4 O :   -0.448089
   5 H :    0.111452
   6 H :    0.114920
   7 H :    0.107612
   8 H :    0.061760
   9 H :    0.118860
  10 H :    0.098839
  11 H :    0.108438
  12 H :    0.091976
  13 H :    0.089999
  14 H :    0.295034
Sum of atomic charges:   -0.0000000

LOEWDIN ATOMIC CHARGES
----------------------
   0 C :   -0.280729
   1 C :   -0.330270
   2 C :   -0.281914
   3 C :   -0.313202
   4 O :   -0.058727
   5 H :    0.117779
   6 H :    0.119893
   7 H :    0.120620
   8 H :    0.141419
   9 H :    0.120433
  10 H :    0.119835
  11 H :    0.117252
  12 H :    0.127146
  13 H :    0.114778
  14 H :    0.165686

  Mayer bond orders larger than 0.100000
B(  0-C ,  1-C ) :   0.9839 B(  0-C ,  5-H ) :   0.9798 B(  0-C ,  6-H ) :   0.9791
B(  0-C ,  7-H ) :   0.9737 B(  1-C ,  2-C ) :   0.9790 B(  1-C ,  3-C ) :   0.9915
B(  1-C ,  8-H ) :   0.9632 B(  2-C ,  9-H ) :   0.9747 B(  2-C , 10-H ) :   0.9709
B(  2-C , 11-H ) :   0.9807 B(  3-C ,  4-O ) :   1.0073 B(  3-C , 12-H ) :   0.9592
B(  3-C , 13-H ) :   0.9778 B(  4-O , 14-H ) :   0.9060

FINAL SINGLE POINT ENERGY      -233.677707355263

DIPOLE MOMENT
-------------

Method             : SCF
Type of density    : Electron Density
Multiplicity       :   1
Irrep              :   0
Energy             :  -233.6882974300627041 Eh
Relativity type    :
Basis              : AO
                                X                 Y                 Z
Electronic contribution:      4.370650278      -0.282375365      -0.360964613
Nuclear contribution   :     -4.828320059       0.041003528      -0.107814672
                        -----------------------------------------
Total Dipole Moment    :     -0.457669782      -0.241371838      -0.468779284
                        -----------------------------------------
Magnitude (a.u.)       :      0.698194823
Magnitude (Debye)      :      1.774670204

Rotational constants in cm-1:             0.251198             0.116182             0.088340
Rotational constants in MHz :          7530.727225          3483.039815          2648.367804

                             ****ORCA TERMINATED NORMALLY****
TOTAL RUN TIME: 0 days 0 hours 1 minutes 4 seconds 251 msec
