                         Program Version 6.0.0  -   RELEASE  -
|  1> ! wb97x-v def2-tzvp def2/J RIJCOSX DEFGRID2 scfconv7 GCP(DFT/TZ) printgap
|  2> %output
|  3>     printlevel normal
|  4> end
|  5> %cpcm
|  6>     smd true
|  7>     smdsolvent "water"
|  8> end
|  9> * xyz 0 1
| 10> C -1.7396365210992124 -0.8124954459857016 0.003618767837171763
| 11> C -0.4925090897527733 0.0037619342629756367 -0.33747091516231026
| 12> C -0.6468290173464387 1.4557080402401887 0.11121086877031164
| 13> C 0.7263406061149951 -0.6552016240683979 0.3022540455571569
| 14> O 1.9673287523206366 0.00038599499398532186 -0.018651737305928767
| 15> H -1.6546438809451807 -1.845263067227425 -0.35173306379676406
| 16> H -2.630831393234055 -0.37023192088535445 -0.4530345276629744
| 17> H -1.8979749300018243 -0.8393265685251098 1.088712546953388
| 18> H -0.3470462056357201 -0.018397547419342096 -1.4279425842735531
| 19> H 0.23356279561446947 2.05320937423281 -0.14286221195182114
| 20> H -0.7899050407692169 1.5065573695478256 1.1975058171707544
| 21> H -1.5165677506258493 1.9199980329459863 -0.3647835013399425
| 22> H 0.641183513462983 -0.6124123963465237 1.3949093352716027
| 23> H 0.7756725958673325 -1.713798392179356 0.007354049312004463
| 24> H 2.071783385277922 -0.04423650484997517 -0.9779227542045223
| 25> *
| 26>
| 27>                          ****END OF INPUT****

CARTESIAN COORDINATES (ANGSTROEM)
---------------------------------
  C     -1.739637   -0.812495    0.003619
  C     -0.492509    0.003762   -0.337471
  C     -0.646829    1.455708    0.111211
  C      0.726341   -0.655202    0.302254
  O      1.967329    0.000386   -0.018652
  H     -1.654644   -1.845263   -0.351733
  H     -2.630831   -0.370232   -0.453035
  H     -1.897975   -0.839327    1.088713
  H     -0.347046   -0.018398   -1.427943
  H      0.233563    2.053209   -0.142862
  H     -0.789905    1.506557    1.197506
  H     -1.516568    1.919998   -0.364784
  H      0.641184   -0.612412    1.394909
  H      0.775673   -1.713798    0.007354
  H      2.071783   -0.044237   -0.977923

 Total Charge           Charge          ....    0
 Multiplicity           Mult            ....    1
 Number of Electrons    NEL             ....   42
 Basis Dimension        Dim             ....  215

ORBITAL ENERGIES
----------------

  NO   OCC          E(Eh)            E(eV)
   0   2.0000     -21.670849      -589.6938
   1   2.0000     -12.080715      -328.7330
   2   2.0000     -12.040927      -327.6503
   3   2.0000     -12.025917      -327.2418
   4   2.0000     -12.023334      -327.1715
   5   2.0000      -1.669369       -45.4258
   6   2.0000      -1.306186       -35.5431
   7   2.0000      -1.187269       -32.3072
   8   2.0000      -1.168158       -31.7872
   9   2.0000      -1.066443       -29.0194
  10   2.0000      -0.999131       -27.1877
  11   2.0000      -0.955532       -26.0013
  12   2.0000      -0.930589       -25.3226
  13   2.0000      -0.874831       -23.8054
  14   2.0000      -0.844342       -22.9757
  15   2.0000      -0.834057       -22.6958
  16   2.0000      -0.801805       -21.8182
  17   2.0000      -0.795870       -21.6567
  18   2.0000      -0.773456       -21.0468
  19   2.0000      -0.761887       -20.7320
  20   2.0000      -0.741661       -20.1816
  21   0.0000      -0.138745        -3.7755
  22   0.0000      -0.030483        -0.8295
  23   0.0000      -0.007114        -0.1936
  24   0.0000      -0.000528        -0.0144
  25   0.0000       0.007950         0.2163

MULLIKEN ATOMIC CHARGES
-----------------------
   0 C :   -0.412869
   1 C :   -0.018589
   2 C :   -0.392918
   3 C :   -0.031358
   4 O :   -0.564503
   5 H :    0.129624
   6 H :    0.130733
   7 H :    0.122263
   8 H :    0.085702
   9 H :    0.119433
  10 H :    0.117863
  11 H :    0.128420
  12 H :    0.115023
  13 H :    0.112920
  14 H :    0.358255
Sum of atomic charges:   -0.0000000

LOEWDIN ATOMIC CHARGES
----------------------
   0 C :   -0.285367
   1 C :   -0.324702
   2 C :   -0.291531
   3 C :   -0.312032
   4 O :   -0.101909
   5 H :    0.121299
   6 H :    0.122240
   7 H :    0.122862
   8 H :    0.149274
   9 H :    0.116806
  10 H :    0.121976
  11 H :    0.121217
  12 H :    0.129710
  13 H :    0.121930
  14 H :    0.188226

  Mayer bond orders larger than 0.100000
B(  0-C ,  1-C ) :   0.9737 B(  0-C ,  5-H ) :   0.9775 B(  0-C ,  6-H ) :   0.9768
B(  0-C ,  7-H ) :   0.9720 B(  1-C ,  2-C ) :   0.9641 B(  1-C ,  3-C ) :   0.9852
B(  1-C ,  8-H ) :   0.9646 B(  2-C ,  9-H ) :   0.9777 B(  2-C , 10-H ) :   0.9717
B(  2-C , 11-H ) :   0.9790 B(  3-C ,  4-O ) :   0.9629 B(  3-C , 12-H ) :   0.9631
B(  3-C , 13-H ) :   0.9803 B(  4-O , 14-H ) :   0.8689

FINAL SINGLE POINT ENERGY      -233.684732819729

DIPOLE MOMENT
-------------

Method             : SCF
Type of density    : Electron Density
Multiplicity       :   1
Irrep              :   0
Energy             :  -233.6953228945293972 Eh
Relativity type    :
Basis              : AO
                                X                 Y                 Z
Electronic contribution:      4.204313788      -0.415832592      -0.546927082
Nuclear contribution   :     -4.828320059       0.041003528      -0.107814672
                        -----------------------------------------
Total Dipole Moment    :     -0.624006271      -0.374829064      -0.654741754
                        -----------------------------------------
Magnitude (a.u.)       :      0.979064563
Magnitude (Debye)      :      2.488584348

Rotational constants in cm-1:             0.251198             0.116182             0.088340
Rotational constants in MHz :          7530.727225          3483.039815          2648.367804

                             ****ORCA TERMINATED NORMALLY****
TOTAL RUN TIME: 0 days 0 hours 1 minutes 15 seconds 171 msec
