                         Program Version 6.0.0  -   RELEASE  -
|  1> ! pbe def2-sv(p) def2/J RI DEFGRID1 loosescf d4 GCP(DFT/SV(P)) printgap
|  2> %output
|  3>     printlevel normal
|  4> end
|  5> * xyz 0 1
|  6> C -1.8303745836 -0.0841573234 -0.6255688563
|  7> C -0.8459152987 -0.0231315779 0.5392839639
|  8> C 0.156154943 -1.1799019161 0.5021852019
|  9> C 1.2115558483 -0.7254994116 -0.5041008209
| 10> C 1.3254940053 0.7915618801 -0.2931982359
| 11> C 0.0526556469 1.220293465 0.4616076265
| 12> H -1.3068702121 -0.0357836663 -1.5763557163
| 13> H -2.4027522694 -1.0086878715 -0.5916431738
| 14> H -2.5265719958 0.7502020133 -0.5750349496
| 15> H -1.4169904104 -0.032509425 1.4722336092
| 16> H 0.6110529931 -1.2999294669 1.4868639173
| 17> H -0.3082695687 -2.1237779283 0.2203180341
| 18> H 2.1641333578 -1.2317064284 -0.3537168632
| 19> H 0.8756335391 -0.9446064767 -1.5178564066
| 20> H 2.2109126203 1.0290377184 0.296215745
| 21> H 1.41738064 1.3119977199 -1.2457249748
| 22> H 0.3093970841 1.5527698406 1.4677798972
| 23> H -0.4561181949 2.042943163 -0.0389168502
| 24> *
| 25>
| 26>                          ****END OF INPUT****

CARTESIAN COORDINATES (ANGSTROEM)
---------------------------------
  C     -1.830375   -0.084157   -0.625569
  C     -0.845915   -0.023132    0.539284
  C      0.156155   -1.179902    0.502185
  C      1.211556   -0.725499   -0.504101
  C      1.325494    0.791562   -0.293198
  C      0.052656    1.220293    0.461608
  H     -1.306870   -0.035784   -1.576356
  H     -2.402752   -1.008688   -0.591643
  H     -2.526572    0.750202   -0.575035
  H     -1.416990   -0.032509    1.472234
  H      0.611053   -1.299929    1.486864
  H     -0.308270   -2.123778    0.220318
  H      2.164133   -1.231706   -0.353717
  H      0.875634   -0.944606   -1.517856
  H      2.210913    1.029038    0.296216
  H      1.417381    1.311998   -1.245725
  H      0.309397    1.552770    1.467780
  H     -0.456118    2.042943   -0.038917

 Total Charge           Charge          ....    0
 Multiplicity           Mult            ....    1
 Number of Electrons    NEL             ....   48
 Basis Dimension        Dim             ....  108

ORBITAL ENERGIES
----------------

  NO   OCC          E(Eh)            E(eV)
   0   2.0000      -9.885304      -268.9928
   1   2.0000      -9.875087      -268.7148
   2   2.0000      -9.875001      -268.7124
   3   2.0000      -9.874238      -268.6917
   4   2.0000      -9.873577      -268.6737
   5   2.0000      -9.869552      -268.5642
   6   2.0000      -0.756798       -20.5935
   7   2.0000      -0.660145       -17.9635
   8   2.0000      -0.629982       -17.1427
   9   2.0000      -0.585526       -15.9330
  10   2.0000      -0.496167       -13.5014
  11   2.0000      -0.478601       -13.0234
  12   2.0000      -0.437065       -11.8931
  13   2.0000      -0.420970       -11.4552
  14   2.0000      -0.383378       -10.4322
  15   2.0000      -0.358364        -9.7516
  16   2.0000      -0.346988        -9.4420
  17   2.0000      -0.337307        -9.1786
  18   2.0000      -0.292708        -7.9650
  19   2.0000      -0.289060        -7.8657
  20   2.0000      -0.280416        -7.6305
  21   2.0000      -0.275976        -7.5097
  22   2.0000      -0.271835        -7.3970
  23   2.0000      -0.265404        -7.2220
  24   0.0000       0.027394         0.7454
  25   0.0000       0.047343         1.2883
  26   0.0000       0.074663         2.0317
  27   0.0000       0.087796         2.3891
  28   0.0000       0.096848         2.6354

MULLIKEN ATOMIC CHARGES
-----------------------
   0 C :   -0.247456
   1 C :   -0.194835
   2 C :   -0.130186
   3 C :   -0.169817
   4 C :   -0.159583
   5 C :   -0.110487
   6 H :    0.096096
   7 H :    0.097837
   8 H :    0.100161
   9 H :    0.068156
  10 H :    0.079990
  11 H :    0.083038
  12 H :    0.085241
  13 H :    0.084671
  14 H :    0.080452
  15 H :    0.081674
  16 H :    0.077585
  17 H :    0.077462
Sum of atomic charges:   -0.0000000

LOEWDIN ATOMIC CHARGES
----------------------
   0 C :   -0.330509
   1 C :   -0.154044
   2 C :   -0.220150
   3 C :   -0.231643
   4 C :   -0.231390
   5 C :   -0.221783
   6 H :    0.115512
   7 H :    0.116915
   8 H :    0.117798
   9 H :    0.112548
  10 H :    0.114504
  11 H :    0.113843
  12 H :    0.116943
  13 H :    0.114470
  14 H :    0.117835
  15 H :    0.117165
  16 H :    0.116766
  17 H :    0.115222

  Mayer bond orders larger than 0.100000
B(  0-C ,  1-C ) :   1.1095 B(  0-C ,  6-H ) :   0.9513 B(  0-C ,  7-H ) :   0.9499
B(  0-C ,  8-H ) :   0.9487 B(  1-C ,  2-C ) :   1.0763 B(  1-C ,  5-C ) :   1.0980
B(  1-C ,  9-H ) :   0.9091 B(  2-C ,  3-C ) :   1.1280 B(  2-C , 10-H ) :   0.9237
B(  2-C , 11-H ) :   0.9286 B(  3-C ,  4-C ) :   1.1595 B(  3-C , 12-H ) :   0.9269
B(  3-C , 13-H ) :   0.9199 B(  4-C ,  5-C ) :   1.1535 B(  4-C , 14-H ) :   0.9248
B(  4-C , 15-H ) :   0.9262 B(  5-C , 16-H ) :   0.9187 B(  5-C , 17-H ) :   0.9254

Dispersion correction           -0.014729412
FINAL SINGLE POINT ENERGY      -235.266708283395

DIPOLE MOMENT
-------------

Method             : SCF
Type of density    : Electron Density
Multiplicity       :   1
Irrep              :   0
Energy             :  -235.3274053496446072 Eh
Relativity type    :
Basis              : AO
                                X                 Y                 Z
Electronic contribution:      0.776837637      -0.007398293       0.923636702
Nuclear contribution   :     -0.777795717       0.009333964      -0.896731632
                        -----------------------------------------
Total Dipole Moment    :     -0.000958080       0.001935672       0.026905070
                        -----------------------------------------
Magnitude (a.u.)       :      0.026991620
Magnitude (Debye)      :      0.068607246

Rotational constants in cm-1:             0.168913             0.113145             0.090851
Rotational constants in MHz :          5063.871287          3392.016034          2723.651197

                             ****ORCA TERMINATED NORMALLY****
TOTAL RUN TIME: 0 days 0 hours 0 minutes 5 seconds 606 msec
