                         Program Version 6.0.0  -   RELEASE  -
|  1> ! r2scan-3c def2/J RI DEFGRID2 scfconv6 printgap
|  2> %output
|  3>     printlevel normal
|  4> end
|  5> * xyz 0 1
|  6> C 0.8501620035 -1.8329138459 7.65287e-05
|  7> C 1.8678315712 -0.9009515859 -2.44469e-05
|  8> C 1.5673226937 0.4602943392 1.51381e-05
|  9> C 0.2377886566 0.8723660255 0.0001638667
| 10> C -0.762112789 -0.0831976676 3.09177e-05
| 11> C -0.4784702631 -1.4361486185 -0.000101423
| 12> Cl -2.423587114 0.443285924 -2.69227e-05
| 13> O 2.5931438064 1.3405401928 -6.22858e-05
| 14> H 1.0888130916 -2.8841715058 0.0002292856
| 15> H 2.9032415325 -1.1998335095 -0.0002910145
| 16> H -0.0177946271 1.920527976 0.0002129253
| 17> H -1.2753183483 -2.1608628589 3.24057e-05
| 18> H 2.270617918 2.2551085835 -0.0001614533
| 19> *
| 20>
| 21>                          ****END OF INPUT****

CARTESIAN COORDINATES (ANGSTROEM)
---------------------------------
  C      0.850162   -1.832914    0.000077
  C      1.867832   -0.900952   -0.000024
  C      1.567323    0.460294    0.000015
  C      0.237789    0.872366    0.000164
  C     -0.762113   -0.083198    0.000031
  C     -0.478470   -1.436149   -0.000101
  Cl    -2.423587    0.443286   -0.000027
  O      2.593144    1.340540   -0.000062
  H      1.088813   -2.884172    0.000229
  H      2.903242   -1.199834   -0.000291
  H     -0.017795    1.920528    0.000213
  H     -1.275318   -2.160863    0.000032
  H      2.270618    2.255109   -0.000161

 Total Charge           Charge          ....    0
 Multiplicity           Mult            ....    1
 Number of Electrons    NEL             ....   66
 Basis Dimension        Dim             ....  190

ORBITAL ENERGIES
----------------

  NO   OCC          E(Eh)            E(eV)
   0   2.0000    -101.220612     -2754.3529
   1   2.0000     -18.999277      -516.9966
   2   2.0000     -10.113295      -275.1967
   3   2.0000     -10.105535      -274.9856
   4   2.0000     -10.050677      -273.4928
   5   2.0000     -10.050470      -273.4872
   6   2.0000     -10.042724      -273.2764
   7   2.0000     -10.040712      -273.2217
   8   2.0000      -9.376476      -255.1469
   9   2.0000      -7.122665      -193.8176
  10   2.0000      -7.112757      -193.5480
  11   2.0000      -7.112313      -193.5359
  12   2.0000      -1.045430       -28.4476
  13   2.0000      -0.863188       -23.4885
  14   2.0000      -0.805584       -21.9211
  15   2.0000      -0.728495       -19.8234
  16   2.0000      -0.709362       -19.3027
  17   2.0000      -0.611355       -16.6358
  18   2.0000      -0.577263       -15.7081
  19   2.0000      -0.529827       -14.4173
  20   2.0000      -0.485299       -13.2057
  21   2.0000      -0.456051       -12.4098
  22   2.0000      -0.424773       -11.5586
  23   2.0000      -0.409539       -11.1441
  24   2.0000      -0.401082       -10.9140
  25   2.0000      -0.374132       -10.1807
  26   2.0000      -0.353396        -9.6164
  27   2.0000      -0.353155        -9.6098
  28   2.0000      -0.329140        -8.9564
  29   2.0000      -0.299795        -8.1578
  30   2.0000      -0.287594        -7.8258
  31   2.0000      -0.239397        -6.5143
  32   2.0000      -0.216913        -5.9025
  33   0.0000      -0.045976        -1.2511
  34   0.0000      -0.030111        -0.8194
  35   0.0000       0.006580         0.1791
  36   0.0000       0.046672         1.2700
  37   0.0000       0.100583         2.7370

MULLIKEN ATOMIC CHARGES
-----------------------
   0 C :   -0.087927
   1 C :   -0.300349
   2 C :    0.446451
   3 C :   -0.419204
   4 C :    0.229040
   5 C :   -0.252901
   6 Cl:   -0.155245
   7 O :   -0.405385
   8 H :    0.152931
   9 H :    0.160231
  10 H :    0.152966
  11 H :    0.162141
  12 H :    0.317250
Sum of atomic charges:    0.0000000

LOEWDIN ATOMIC CHARGES
----------------------
   0 C :   -0.139736
   1 C :   -0.147161
   2 C :    0.189503
   3 C :   -0.183603
   4 C :   -0.151938
   5 C :   -0.200504
   6 Cl:    0.120432
   7 O :   -0.485594
   8 H :    0.172091
   9 H :    0.181766
  10 H :    0.179267
  11 H :    0.177792
  12 H :    0.287684

  Mayer bond orders larger than 0.100000
B(  0-C ,  1-C ) :   1.4131 B(  0-C ,  5-C ) :   1.3878 B(  0-C ,  8-H ) :   0.9492
B(  1-C ,  2-C ) :   1.4173 B(  1-C ,  9-H ) :   0.9425 B(  2-C ,  3-C ) :   1.3272
B(  2-C ,  7-O ) :   0.9237 B(  3-C ,  4-C ) :   1.4265 B(  3-C , 10-H ) :   0.9155
B(  4-C ,  5-C ) :   1.4116 B(  4-C ,  6-Cl) :   0.8766 B(  5-C , 11-H ) :   0.9420
B(  7-O , 12-H ) :   0.8808

Dispersion correction           -0.004475410
FINAL SINGLE POINT ENERGY      -766.981744781758

DIPOLE MOMENT
-------------

Method             : SCF
Type of density    : Electron Density
Multiplicity       :   1
Irrep              :   0
Energy             :  -766.9822886129321660 Eh
Relativity type    :
Basis              : AO
                                X                 Y                 Z
Electronic contribution:     -7.559992292       2.738139961      -0.000098688
Nuclear contribution   :      7.953632079      -2.516423174       0.000055992
                        -----------------------------------------
Total Dipole Moment    :      0.393639787       0.221716786      -0.000042696
                        -----------------------------------------
Magnitude (a.u.)       :      0.451786031
Magnitude (Debye)      :      1.148348829

Rotational constants in cm-1:             0.115663             0.039867             0.029648
Rotational constants in MHz :          3467.503762          1195.175147           888.818298

                             ****ORCA TERMINATED NORMALLY****
TOTAL RUN TIME: 0 days 0 hours 0 minutes 21 seconds 79 msec
