                         Program Version 6.0.0  -   RELEASE  -
|  1> ! r2scan-3c def2/J RI DEFGRID2 scfconv6 printgap
|  2> %output
|  3>     printlevel normal
|  4> end
|  5> %cpcm
|  6>     smd true
|  7>     smdsolvent "water"
|  8> end
|  9> * xyz 0 1
| 10> C 0.8501620035 -1.8329138459 7.65287e-05
| 11> C 1.8678315712 -0.9009515859 -2.44469e-05
| 12> C 1.5673226937 0.4602943392 1.51381e-05
| 13> C 0.2377886566 0.8723660255 0.0001638667
| 14> C -0.762112789 -0.0831976676 3.09177e-05
| 15> C -0.4784702631 -1.4361486185 -0.000101423
| 16> Cl -2.423587114 0.443285924 -2.69227e-05
| 17> O 2.5931438064 1.3405401928 -6.22858e-05
| 18> H 1.0888130916 -2.8841715058 0.0002292856
| 19> H 2.9032415325 -1.1998335095 -0.0002910145
| 20> H -0.0177946271 1.920527976 0.0002129253
| 21> H -1.2753183483 -2.1608628589 3.24057e-05
| 22> H 2.270617918 2.2551085835 -0.0001614533
| 23> *
| 24>
| 25>                          ****END OF INPUT****

CARTESIAN COORDINATES (ANGSTROEM)
---------------------------------
  C      0.850162   -1.832914    0.000077
  C      1.867832   -0.900952   -0.000024
  C      1.567323    0.460294    0.000015
  C      0.237789    0.872366    0.000164
  C     -0.762113   -0.083198    0.000031
  C     -0.478470   -1.436149   -0.000101
  Cl    -2.423587    0.443286   -0.000027
  O      2.593144    1.340540   -0.000062
  H      1.088813   -2.884172    0.000229
  H      2.903242   -1.199834   -0.000291
  H     -0.017795    1.920528    0.000213
  H     -1.275318   -2.160863    0.000032
  H      2.270618    2.255109   -0.000161

 Total Charge           Charge          ....    0
 Multiplicity           Mult            ....    1
 Number of Electrons    NEL             ....   66
 Basis Dimension        Dim             ....  190

ORBITAL ENERGIES
----------------

  NO   OCC          E(Eh)            E(eV)
   0   2.0000    -101.223425     -2754.4294
   1   2.0000     -18.989195      -516.7223
   2   2.0000     -10.107830      -275.0480
   3   2.0000     -10.102940      -274.9150
   4   2.0000     -10.044437      -273.3230
   5   2.0000     -10.042986      -273.2836
   6   2.0000     -10.038211      -273.1536
   7   2.0000     -10.035269      -273.0736
   8   2.0000      -9.379451      -255.2278
   9   2.0000      -7.125490      -193.8945
  10   2.0000      -7.115817      -193.6312
  11   2.0000      -7.115321      -193.6177
  12   2.0000      -1.035290       -28.1717
  13   2.0000      -0.862232       -23.4625
  14   2.0000      -0.804236       -21.8844
  15   2.0000      -0.722442       -19.6587
  16   2.0000      -0.705968       -19.2104
  17   2.0000      -0.603100       -16.4112
  18   2.0000      -0.571520       -15.5518
  19   2.0000      -0.521290       -14.1850
  20   2.0000      -0.477596       -12.9961
  21   2.0000      -0.450388       -12.2557
  22   2.0000      -0.419862       -11.4250
  23   2.0000      -0.402269       -10.9463
  24   2.0000      -0.397797       -10.8246
  25   2.0000      -0.368306       -10.0221
  26   2.0000      -0.353056        -9.6071
  27   2.0000      -0.345899        -9.4124
  28   2.0000      -0.322359        -8.7718
  29   2.0000      -0.299870        -8.1599
  30   2.0000      -0.290295        -7.8993
  31   2.0000      -0.237619        -6.4659
  32   2.0000      -0.214535        -5.8378
  33   0.0000      -0.042858        -1.1662
  34   0.0000      -0.027578        -0.7504
  35   0.0000       0.007387         0.2010
  36   0.0000       0.079795         2.1713
  37   0.0000       0.107600         2.9279

MULLIKEN ATOMIC CHARGES
-----------------------
   0 C :   -0.136495
   1 C :   -0.331432
   2 C :    0.385995
   3 C :   -0.396094
   4 C :    0.227191
   5 C :   -0.280574
   6 Cl:   -0.171799
   7 O :   -0.444305
   8 H :    0.190055
   9 H :    0.189999
  10 H :    0.199177
  11 H :    0.193107
  12 H :    0.375174
Sum of atomic charges:    0.0000000

LOEWDIN ATOMIC CHARGES
----------------------
   0 C :   -0.146500
   1 C :   -0.157471
   2 C :    0.181961
   3 C :   -0.175789
   4 C :   -0.166987
   5 C :   -0.210751
   6 Cl:    0.104567
   7 O :   -0.497168
   8 H :    0.184440
   9 H :    0.190516
  10 H :    0.196512
  11 H :    0.186938
  12 H :    0.309732

  Mayer bond orders larger than 0.100000
B(  0-C ,  1-C ) :   1.4002 B(  0-C ,  5-C ) :   1.3801 B(  0-C ,  8-H ) :   0.9509
B(  1-C ,  2-C ) :   1.3644 B(  1-C ,  9-H ) :   0.9480 B(  2-C ,  3-C ) :   1.3709
B(  2-C ,  7-O ) :   0.9366 B(  3-C ,  4-C ) :   1.3656 B(  3-C , 10-H ) :   0.9202
B(  4-C ,  5-C ) :   1.3560 B(  4-C ,  6-Cl) :   0.8789 B(  5-C , 11-H ) :   0.9468
B(  7-O , 12-H ) :   0.8491

Dispersion correction           -0.004475410
FINAL SINGLE POINT ENERGY      -766.990755122502

DIPOLE MOMENT
-------------

Method             : SCF
Type of density    : Electron Density
Multiplicity       :   1
Irrep              :   0
Energy             :  -766.9912989536760506 Eh
Relativity type    :
Basis              : AO
                                X                 Y                 Z
Electronic contribution:     -7.459883273       2.890503587      -0.000109139
Nuclear contribution   :      7.953632079      -2.516423174       0.000055992
                        -----------------------------------------
Total Dipole Moment    :      0.493748807       0.374080413      -0.000053147
                        -----------------------------------------
Magnitude (a.u.)       :      0.619454633
Magnitude (Debye)      :      1.574528547

Rotational constants in cm-1:             0.115663             0.039867             0.029648
Rotational constants in MHz :          3467.503762          1195.175147           888.818298

                             ****ORCA TERMINATED NORMALLY****
TOTAL RUN TIME: 0 days 0 hours 0 minutes 24 seconds 640 msec
