                         Program Version 6.0.0  -   RELEASE  -
|  1> ! pbe def2-sv(p) def2/J RI DEFGRID1 loosescf d4 GCP(DFT/SV(P)) printgap
|  2> %output
|  3>     printlevel normal
|  4> end
|  5> * xyz 0 1
|  6> C -2.3288170085 -0.879419828 -0.5529924241
|  7> C -1.0372569523 -0.5575807165 0.2156087012
|  8> H -1.1244951648 -0.9067354911 1.2585164118
|  9> C -0.7429302653 0.9636915172 0.2525188386
| 10> H -1.5583383381 1.4948801505 -0.2507303271
| 11> C 0.582724457 1.2551056478 -0.481190119
| 12> H 0.8263244343 2.3134344094 -0.33580053
| 13> C 1.7054284867 0.3867660458 0.1311049366
| 14> H 2.5857629505 0.4352549605 -0.5204233571
| 15> C 1.2599878791 -1.0921828509 0.1762341644
| 16> H 1.1958097103 -1.3928683397 1.2427683086
| 17> O -0.0028367967 -1.2828208412 -0.4289648029
| 18> O 2.1817016273 -1.8515119952 -0.5123024228
| 19> O 2.0085437904 0.7852926033 1.4488793811
| 20> O 0.4875347602 1.0737477391 -1.8683610852
| 21> O -0.7189340425 1.4602052284 1.5678608417
| 22> O -3.44402767 -0.1842423739 -0.068495115
| 23> H -2.4877531936 -1.9644699072 -0.5318173358
| 24> H -2.2067874081 -0.5667831858 -1.5922378175
| 25> H 1.8635659716 -2.7643909315 -0.5969067821
| 26> H 2.6247125689 1.5315586371 1.4375063134
| 27> H 0.3382806207 0.1324340928 -2.0499195922
| 28> H 0.1308935005 1.2196030632 1.9795922173
| 29> H -3.6314414449 -0.4527660859 0.8421304585
| 30> *
| 31>
| 32>                          ****END OF INPUT****

CARTESIAN COORDINATES (ANGSTROEM)
---------------------------------
  C     -2.328817   -0.879420   -0.552992
  C     -1.037257   -0.557581    0.215609
  H     -1.124495   -0.906735    1.258516
  C     -0.742930    0.963692    0.252519
  H     -1.558338    1.494880   -0.250730
  C      0.582724    1.255106   -0.481190
  H      0.826324    2.313434   -0.335801
  C      1.705428    0.386766    0.131105
  H      2.585763    0.435255   -0.520423
  C      1.259988   -1.092183    0.176234
  H      1.195810   -1.392868    1.242768
  O     -0.002837   -1.282821   -0.428965
  O      2.181702   -1.851512   -0.512302
  O      2.008544    0.785293    1.448879
  O      0.487535    1.073748   -1.868361
  O     -0.718934    1.460205    1.567861
  O     -3.444028   -0.184242   -0.068495
  H     -2.487753   -1.964470   -0.531817
  H     -2.206787   -0.566783   -1.592238
  H      1.863566   -2.764391   -0.596907
  H      2.624713    1.531559    1.437506
  H      0.338281    0.132434   -2.049920
  H      0.130894    1.219603    1.979592
  H     -3.631441   -0.452766    0.842130

 Total Charge           Charge          ....    0
 Multiplicity           Mult            ....    1
 Number of Electrons    NEL             ....   96
 Basis Dimension        Dim             ....  192

ORBITAL ENERGIES
----------------

  NO   OCC          E(Eh)            E(eV)
   0   2.0000     -18.786634      -511.2103
   1   2.0000     -18.783452      -511.1237
   2   2.0000     -18.772249      -510.8189
   3   2.0000     -18.754781      -510.3435
   4   2.0000     -18.746942      -510.1302
   5   2.0000     -18.734370      -509.7881
   6   2.0000      -9.998029      -272.0602
   7   2.0000      -9.950356      -270.7629
   8   2.0000      -9.945057      -270.6188
   9   2.0000      -9.940737      -270.5012
  10   2.0000      -9.937671      -270.4178
  11   2.0000      -9.931539      -270.2509
  12   2.0000      -0.997306       -27.1381
  13   2.0000      -0.956400       -26.0250
  14   2.0000      -0.938094       -25.5268
  15   2.0000      -0.929567       -25.2948
  16   2.0000      -0.920396       -25.0453
  17   2.0000      -0.910952       -24.7883
  18   2.0000      -0.699344       -19.0301
  19   2.0000      -0.691638       -18.8204
  20   2.0000      -0.623750       -16.9731
  21   2.0000      -0.586555       -15.9610
  22   2.0000      -0.571274       -15.5452
  23   2.0000      -0.527103       -14.3432
  24   2.0000      -0.518809       -14.1175
  25   2.0000      -0.492621       -13.4049
  26   2.0000      -0.487197       -13.2573
  27   2.0000      -0.461215       -12.5503
  28   2.0000      -0.450461       -12.2577
  29   2.0000      -0.441140       -12.0040
  30   2.0000      -0.421499       -11.4696
  31   2.0000      -0.395792       -10.7701
  32   2.0000      -0.389159       -10.5895
  33   2.0000      -0.373784       -10.1712
  34   2.0000      -0.351038        -9.5522
  35   2.0000      -0.347712        -9.4617
  36   2.0000      -0.337856        -9.1935
  37   2.0000      -0.320451        -8.7199
  38   2.0000      -0.314973        -8.5709
  39   2.0000      -0.308118        -8.3843
  40   2.0000      -0.279830        -7.6146
  41   2.0000      -0.270341        -7.3563
  42   2.0000      -0.261908        -7.1269
  43   2.0000      -0.258068        -7.0224
  44   2.0000      -0.243795        -6.6340
  45   2.0000      -0.226109        -6.1527
  46   2.0000      -0.213140        -5.7998
  47   2.0000      -0.194852        -5.3022
  48   0.0000       0.003691         0.1004
  49   0.0000       0.022457         0.6111
  50   0.0000       0.025438         0.6922
  51   0.0000       0.038652         1.0518
  52   0.0000       0.053570         1.4577

MULLIKEN ATOMIC CHARGES
-----------------------
   0 C :    0.075104
   1 C :   -0.013589
   2 H :    0.047679
   3 C :    0.062836
   4 H :    0.088338
   5 C :    0.029266
   6 H :    0.070166
   7 C :   -0.000106
   8 H :    0.089424
   9 C :    0.197209
  10 H :    0.052941
  11 O :   -0.319508
  12 O :   -0.378633
  13 O :   -0.416601
  14 O :   -0.422073
  15 O :   -0.435014
  16 O :   -0.422490
  17 H :    0.080372
  18 H :    0.083363
  19 H :    0.307309
  20 H :    0.318742
  21 H :    0.308080
  22 H :    0.294131
  23 H :    0.303054
Sum of atomic charges:   -0.0000000

LOEWDIN ATOMIC CHARGES
----------------------
   0 C :   -0.125096
   1 C :   -0.082296
   2 H :    0.098420
   3 C :   -0.077593
   4 H :    0.122571
   5 C :   -0.081763
   6 H :    0.114281
   7 C :   -0.091707
   8 H :    0.118476
   9 C :    0.006008
  10 H :    0.086509
  11 O :   -0.160413
  12 O :   -0.289776
  13 O :   -0.304956
  14 O :   -0.314450
  15 O :   -0.328134
  16 O :   -0.321674
  17 H :    0.098680
  18 H :    0.114893
  19 H :    0.290328
  20 H :    0.298634
  21 H :    0.275126
  22 H :    0.265561
  23 H :    0.288372

  Mayer bond orders larger than 0.100000
B(  0-C ,  1-C ) :   1.0330 B(  0-C , 16-O ) :   1.0763 B(  0-C , 17-H ) :   0.9172
B(  0-C , 18-H ) :   0.9122 B(  1-C ,  2-H ) :   0.8751 B(  1-C ,  3-C ) :   0.9482
B(  1-C , 11-O ) :   0.9752 B(  3-C ,  4-H ) :   0.8921 B(  3-C ,  5-C ) :   0.9822
B(  3-C , 15-O ) :   1.0565 B(  5-C ,  6-H ) :   0.8968 B(  5-C ,  7-C ) :   0.9815
B(  5-C , 14-O ) :   1.0502 B(  7-C ,  8-H ) :   0.8893 B(  7-C ,  9-C ) :   0.9796
B(  7-C , 13-O ) :   1.0265 B(  9-C , 10-H ) :   0.8851 B(  9-C , 11-O ) :   1.0179
B(  9-C , 12-O ) :   1.1759 B( 12-O , 19-H ) :   0.8385 B( 13-O , 20-H ) :   0.8397
B( 13-O , 22-H ) :   0.1082 B( 14-O , 21-H ) :   0.8250 B( 15-O , 22-H ) :   0.8098
B( 16-O , 23-H ) :   0.8487

Dispersion correction           -0.024890931
FINAL SINGLE POINT ENERGY      -685.692733939930

DIPOLE MOMENT
-------------

Method             : SCF
Type of density    : Electron Density
Multiplicity       :   1
Irrep              :   0
Energy             :  -685.8246036903321965 Eh
Relativity type    :
Basis              : AO
                                X                 Y                 Z
Electronic contribution:      2.004887666      -0.051355509      -0.223771457
Nuclear contribution   :     -1.346631725      -0.863902734       0.830155630
                        -----------------------------------------
Total Dipole Moment    :      0.658255941      -0.915258244       0.606384173
                        -----------------------------------------
Magnitude (a.u.)       :      1.280117300
Magnitude (Debye)      :      3.253799593

Rotational constants in cm-1:             0.043071             0.025172             0.021366
Rotational constants in MHz :          1291.237056           754.643817           640.535603

                             ****ORCA TERMINATED NORMALLY****
TOTAL RUN TIME: 0 days 0 hours 0 minutes 12 seconds 240 msec
