                         Program Version 6.0.0  -   RELEASE  -
|  1> ! pbe def2-sv(p) def2/J RI DEFGRID1 loosescf d4 GCP(DFT/SV(P)) printgap
|  2> %output
|  3>     printlevel normal
|  4> end
|  5> * xyz 0 1
|  6> C -1.7915868424 -0.7324029667 -0.5772771655
|  7> C -0.702387459 0.319343058 -0.3644257491
|  8> C -1.004374222 1.1248811952 0.8979104014
|  9> C 0.7023765266 -0.3193634134 -0.36441508
| 10> C 1.7915975907 0.7323500916 -0.5773115352
| 11> C 1.0043702744 -1.124816445 0.8979724806
| 12> H -1.8329389875 -1.4240267038 0.2604971276
| 13> H -2.7636303797 -0.2527269535 -0.666653925
| 14> H -1.6059888732 -1.301579358 -1.4854692296
| 15> H -0.7358869842 1.0066126998 -1.2188380387
| 16> H -1.0835495456 0.4719345551 1.7630115037
| 17> H -0.2311443555 1.864487227 1.0865588643
| 18> H -1.9509510566 1.6483813993 0.7824679969
| 19> H 0.7358904421 -1.006684025 -1.2187951131
| 20> H 2.7636780167 0.2527002182 -0.666322223
| 21> H 1.6061632932 1.3012347253 -1.4857091167
| 22> H 1.8327701459 1.4242484934 0.2602503523
| 23> H 1.951377168 -1.6476165884 0.7828731719
| 24> H 0.2315268568 -1.8649389077 1.086239661
| 25> H 1.0827334971 -0.4719257233 1.7631698379
| 26> *
| 27>
| 28>                          ****END OF INPUT****

CARTESIAN COORDINATES (ANGSTROEM)
---------------------------------
  C     -1.791587   -0.732403   -0.577277
  C     -0.702387    0.319343   -0.364426
  C     -1.004374    1.124881    0.897910
  C      0.702377   -0.319363   -0.364415
  C      1.791598    0.732350   -0.577312
  C      1.004370   -1.124816    0.897972
  H     -1.832939   -1.424027    0.260497
  H     -2.763630   -0.252727   -0.666654
  H     -1.605989   -1.301579   -1.485469
  H     -0.735887    1.006613   -1.218838
  H     -1.083550    0.471935    1.763012
  H     -0.231144    1.864487    1.086559
  H     -1.950951    1.648381    0.782468
  H      0.735890   -1.006684   -1.218795
  H      2.763678    0.252700   -0.666322
  H      1.606163    1.301235   -1.485709
  H      1.832770    1.424248    0.260250
  H      1.951377   -1.647617    0.782873
  H      0.231527   -1.864939    1.086240
  H      1.082733   -0.471926    1.763170

 Total Charge           Charge          ....    0
 Multiplicity           Mult            ....    1
 Number of Electrons    NEL             ....   50
 Basis Dimension        Dim             ....  112

ORBITAL ENERGIES
----------------

  NO   OCC          E(Eh)            E(eV)
   0   2.0000      -9.888386      -269.0767
   1   2.0000      -9.888382      -269.0765
   2   2.0000      -9.868194      -268.5272
   3   2.0000      -9.868146      -268.5259
   4   2.0000      -9.867779      -268.5159
   5   2.0000      -9.867776      -268.5158
   6   2.0000      -0.737797       -20.0765
   7   2.0000      -0.668815       -18.1994
   8   2.0000      -0.609468       -16.5845
   9   2.0000      -0.604064       -16.4374
  10   2.0000      -0.541407       -14.7324
  11   2.0000      -0.471925       -12.8417
  12   2.0000      -0.421699       -11.4750
  13   2.0000      -0.399083       -10.8596
  14   2.0000      -0.393797       -10.7158
  15   2.0000      -0.359173        -9.7736
  16   2.0000      -0.352644        -9.5959
  17   2.0000      -0.340779        -9.2731
  18   2.0000      -0.329761        -8.9733
  19   2.0000      -0.326670        -8.8891
  20   2.0000      -0.301785        -8.2120
  21   2.0000      -0.300918        -8.1884
  22   2.0000      -0.271431        -7.3860
  23   2.0000      -0.269210        -7.3256
  24   2.0000      -0.264635        -7.2011
  25   0.0000       0.030988         0.8432
  26   0.0000       0.066945         1.8217
  27   0.0000       0.067509         1.8370
  28   0.0000       0.074231         2.0199
  29   0.0000       0.093348         2.5401

MULLIKEN ATOMIC CHARGES
-----------------------
   0 C :   -0.238977
   1 C :   -0.150032
   2 C :   -0.260339
   3 C :   -0.150058
   4 C :   -0.238985
   5 C :   -0.260329
   6 H :    0.096476
   7 H :    0.095620
   8 H :    0.094665
   9 H :    0.064551
  10 H :    0.099960
  11 H :    0.101128
  12 H :    0.096967
  13 H :    0.064552
  14 H :    0.095618
  15 H :    0.094664
  16 H :    0.096475
  17 H :    0.096964
  18 H :    0.101125
  19 H :    0.099954
Sum of atomic charges:   -0.0000000

LOEWDIN ATOMIC CHARGES
----------------------
   0 C :   -0.329545
   1 C :   -0.150330
   2 C :   -0.331542
   3 C :   -0.150330
   4 C :   -0.329549
   5 C :   -0.331542
   6 H :    0.114852
   7 H :    0.117152
   8 H :    0.115522
   9 H :    0.112152
  10 H :    0.117042
  11 H :    0.115924
  12 H :    0.118779
  13 H :    0.112151
  14 H :    0.117150
  15 H :    0.115522
  16 H :    0.114851
  17 H :    0.118774
  18 H :    0.115925
  19 H :    0.117044

  Mayer bond orders larger than 0.100000
B(  0-C ,  1-C ) :   1.1147 B(  0-C ,  6-H ) :   0.9442 B(  0-C ,  7-H ) :   0.9500
B(  0-C ,  8-H ) :   0.9484 B(  1-C ,  2-C ) :   1.1062 B(  1-C ,  3-C ) :   1.0400
B(  1-C ,  9-H ) :   0.9022 B(  2-C , 10-H ) :   0.9431 B(  2-C , 11-H ) :   0.9479
B(  2-C , 12-H ) :   0.9485 B(  3-C ,  4-C ) :   1.1147 B(  3-C ,  5-C ) :   1.1062
B(  3-C , 13-H ) :   0.9022 B(  4-C , 14-H ) :   0.9500 B(  4-C , 15-H ) :   0.9485
B(  4-C , 16-H ) :   0.9442 B(  5-C , 17-H ) :   0.9485 B(  5-C , 18-H ) :   0.9479
B(  5-C , 19-H ) :   0.9431

Dispersion correction           -0.015796617
FINAL SINGLE POINT ENERGY      -236.448924030790

DIPOLE MOMENT
-------------

Method             : SCF
Type of density    : Electron Density
Multiplicity       :   1
Irrep              :   0
Energy             :  -236.5162324937127210 Eh
Relativity type    :
Basis              : AO
                                X                 Y                 Z
Electronic contribution:     -0.000061612      -0.000057037      -1.012552826
Nuclear contribution   :      0.000046193       0.000094809       0.978765606
                        -----------------------------------------
Total Dipole Moment    :     -0.000015419       0.000037772      -0.033787220
                        -----------------------------------------
Magnitude (a.u.)       :      0.033787244
Magnitude (Debye)      :      0.085880350

Rotational constants in cm-1:             0.143762             0.083985             0.076578
Rotational constants in MHz :          4309.881459          2517.809880          2295.738146

                             ****ORCA TERMINATED NORMALLY****
TOTAL RUN TIME: 0 days 0 hours 0 minutes 7 seconds 571 msec
