                         Program Version 6.0.0  -   RELEASE  -
|  1> ! pbe def2-sv(p) def2/J RI DEFGRID1 loosescf d4 GCP(DFT/SV(P)) printgap
|  2> %output
|  3>     printlevel normal
|  4> end
|  5> * xyz 0 1
|  6> C -2.628273206 0.0381183756 -0.3731690049
|  7> O -1.3514220525 0.5409687265 0.0410994117
|  8> C -0.4503286664 -0.3029852018 0.4995530515
|  9> O -0.6133016327 -1.4955152859 0.6240021533
| 10> C 0.8431155277 0.4141901249 0.8312363522
| 11> Cl 1.8358668975 0.3479159008 -0.6601260871
| 12> H -3.3708942089 0.743272972 -0.0094394004
| 13> H -2.7904327442 -0.9553886622 0.0446185264
| 14> H -2.6466235583 -0.0065861734 -1.4612603003
| 15> H 1.3901617067 -0.1080259256 1.6127694942
| 16> H 0.6687525831 1.4617682178 1.0638355914
| 17> *
| 18>
| 19>                          ****END OF INPUT****

CARTESIAN COORDINATES (ANGSTROEM)
---------------------------------
  C     -2.628273    0.038118   -0.373169
  O     -1.351422    0.540969    0.041099
  C     -0.450329   -0.302985    0.499553
  O     -0.613302   -1.495515    0.624002
  C      0.843116    0.414190    0.831236
  Cl     1.835867    0.347916   -0.660126
  H     -3.370894    0.743273   -0.009439
  H     -2.790433   -0.955389    0.044619
  H     -2.646624   -0.006586   -1.461260
  H      1.390162   -0.108026    1.612769
  H      0.668753    1.461768    1.063836

 Total Charge           Charge          ....    0
 Multiplicity           Mult            ....    1
 Number of Electrons    NEL             ....   56
 Basis Dimension        Dim             ....   98

ORBITAL ENERGIES
----------------

  NO   OCC          E(Eh)            E(eV)
   0   2.0000    -100.632648     -2738.3536
   1   2.0000     -18.814274      -511.9624
   2   2.0000     -18.746318      -510.1132
   3   2.0000     -10.021279      -272.6929
   4   2.0000      -9.955682      -270.9079
   5   2.0000      -9.949212      -270.7318
   6   2.0000      -9.168345      -249.4833
   7   2.0000      -7.000498      -190.4932
   8   2.0000      -6.987892      -190.1502
   9   2.0000      -6.987454      -190.1383
  10   2.0000      -1.021146       -27.7868
  11   2.0000      -0.924817       -25.1655
  12   2.0000      -0.788489       -21.4559
  13   2.0000      -0.689661       -18.7666
  14   2.0000      -0.621246       -16.9050
  15   2.0000      -0.520852       -14.1731
  16   2.0000      -0.467326       -12.7166
  17   2.0000      -0.447208       -12.1692
  18   2.0000      -0.437198       -11.8968
  19   2.0000      -0.400827       -10.9071
  20   2.0000      -0.394339       -10.7305
  21   2.0000      -0.379438       -10.3250
  22   2.0000      -0.348262        -9.4767
  23   2.0000      -0.313541        -8.5319
  24   2.0000      -0.271088        -7.3767
  25   2.0000      -0.266525        -7.2525
  26   2.0000      -0.255492        -6.9523
  27   2.0000      -0.229110        -6.2344
  28   0.0000      -0.053694        -1.4611
  29   0.0000       0.022859         0.6220
  30   0.0000       0.053170         1.4468
  31   0.0000       0.067460         1.8357
  32   0.0000       0.079012         2.1500

MULLIKEN ATOMIC CHARGES
-----------------------
   0 C :   -0.128566
   1 O :   -0.231725
   2 C :    0.115375
   3 O :   -0.189899
   4 C :   -0.133646
   5 Cl:   -0.128607
   6 H :    0.127222
   7 H :    0.136278
   8 H :    0.130395
   9 H :    0.154736
  10 H :    0.148435
Sum of atomic charges:    0.0000000

LOEWDIN ATOMIC CHARGES
----------------------
   0 C :   -0.204170
   1 O :   -0.062517
   2 C :   -0.002552
   3 O :   -0.155655
   4 C :   -0.289010
   5 Cl:    0.061469
   6 H :    0.123721
   7 H :    0.126151
   8 H :    0.124937
   9 H :    0.141458
  10 H :    0.136170

  Mayer bond orders larger than 0.100000
B(  0-C ,  1-O ) :   0.9277 B(  0-C ,  6-H ) :   0.9606 B(  0-C ,  7-H ) :   0.9323
B(  0-C ,  8-H ) :   0.9584 B(  1-O ,  2-C ) :   1.2302 B(  1-O ,  3-O ) :   0.1047
B(  2-C ,  3-O ) :   2.0813 B(  2-C ,  4-C ) :   0.9782 B(  4-C ,  5-Cl) :   1.0393
B(  4-C ,  9-H ) :   0.9173 B(  4-C , 10-H ) :   0.9141

Dispersion correction           -0.008297326
FINAL SINGLE POINT ENERGY      -727.080268076680

DIPOLE MOMENT
-------------

Method             : SCF
Type of density    : Electron Density
Multiplicity       :   1
Irrep              :   0
Energy             :  -727.1222394715846349 Eh
Relativity type    :
Basis              : AO
                                X                 Y                 Z
Electronic contribution:      8.150055918       0.080988798      -1.854462955
Nuclear contribution   :     -8.824955228       0.583759746       2.069074064
                        -----------------------------------------
Total Dipole Moment    :     -0.674899309       0.664748544       0.214611109
                        -----------------------------------------
Magnitude (a.u.)       :      0.971307177
Magnitude (Debye)      :      2.468866640

Rotational constants in cm-1:             0.199054             0.054205             0.049073
Rotational constants in MHz :          5967.493136          1625.012405          1471.169069

                             ****ORCA TERMINATED NORMALLY****
TOTAL RUN TIME: 0 days 0 hours 0 minutes 5 seconds 529 msec
