                         Program Version 6.0.0  -   RELEASE  -
|  1> ! wb97x-v def2-tzvp def2/J RIJCOSX DEFGRID2 scfconv7 GCP(DFT/TZ) printgap
|  2> %output
|  3>     printlevel normal
|  4> end
|  5> * xyz 0 1
|  6> C -2.4063772349528545 -2.282420684613779e-05 -0.5356767641147587
|  7> C -1.3822453635424228 1.393211721810825e-05 0.6026494047577504
|  8> C -0.49786905503715867 -1.2580244840718922 0.582733839737707
|  9> C 0.49778012231731844 -1.2580626522954557 -0.5825086926094336
| 10> C 1.3821258750849696 8.521114241408285e-06 -0.6027100410518548
| 11> C 0.4978051272739328 1.2580948706148034 -0.5824796714784076
| 12> C -0.49785711889964845 1.2580409842634754 0.582745757422268
| 13> C 2.406677494999587 -5.372643798603489e-05 0.53524003212255
| 14> H -3.0495911796613657 -0.8854768437187392 -0.4787213187169532
| 15> H -3.0488470382816093 0.8860196332632779 -0.4794853187227478
| 16> H -1.9317084149192356 -0.0006550465782866294 -1.5218548869544797
| 17> H -1.945103985616152 2.4708935157832754e-05 1.5460866743472723
| 18> H 0.05173883429384377 -1.3199844554599591 1.530836510973901
| 19> H -1.1297158277695898 -2.1537306657108433 0.5298026554180868
| 20> H 1.1297124235546596 -2.1536976756621473 -0.5294184176087672
| 21> H -0.05184095429343009 -1.320274202397229 -1.5305829094779309
| 22> H 1.944650411599969 2.5484508358761498e-05 -1.5463467900828005
| 23> H 1.1297662679708897 2.1537074578254627 -0.5293383213593473
| 24> H -0.051801915760191775 1.32036178098465 -1.5305615254284564
| 25> H 0.05173349554509914 1.3200083325085443 1.5308605051070239
| 26> H -1.129712021773772 2.15374085037388 0.5297982504758479
| 27> H 3.049728458115807 -0.885615849574107 0.4781335297285351
| 28> H 1.9323800590167488 -0.0004896173107602242 1.5215992339400446
| 29> H 3.0492663773414943 0.8858782734708924 0.47868277525113095
| 30> *
| 31>
| 32>                          ****END OF INPUT****

CARTESIAN COORDINATES (ANGSTROEM)
---------------------------------
  C     -2.406377   -0.000023   -0.535677
  C     -1.382245    0.000014    0.602649
  C     -0.497869   -1.258024    0.582734
  C      0.497780   -1.258063   -0.582509
  C      1.382126    0.000009   -0.602710
  C      0.497805    1.258095   -0.582480
  C     -0.497857    1.258041    0.582746
  C      2.406677   -0.000054    0.535240
  H     -3.049591   -0.885477   -0.478721
  H     -3.048847    0.886020   -0.479485
  H     -1.931708   -0.000655   -1.521855
  H     -1.945104    0.000025    1.546087
  H      0.051739   -1.319984    1.530837
  H     -1.129716   -2.153731    0.529803
  H      1.129712   -2.153698   -0.529418
  H     -0.051841   -1.320274   -1.530583
  H      1.944650    0.000025   -1.546347
  H      1.129766    2.153707   -0.529338
  H     -0.051802    1.320362   -1.530562
  H      0.051733    1.320008    1.530861
  H     -1.129712    2.153741    0.529798
  H      3.049728   -0.885616    0.478134
  H      1.932380   -0.000490    1.521599
  H      3.049266    0.885878    0.478683

 Total Charge           Charge          ....    0
 Multiplicity           Mult            ....    1
 Number of Electrons    NEL             ....   64
 Basis Dimension        Dim             ....  344

ORBITAL ENERGIES
----------------

  NO   OCC          E(Eh)            E(eV)
   0   2.0000     -12.042103      -327.6823
   1   2.0000     -12.041910      -327.6770
   2   2.0000     -12.033942      -327.4602
   3   2.0000     -12.033502      -327.4482
   4   2.0000     -12.032608      -327.4239
   5   2.0000     -12.032503      -327.4211
   6   2.0000     -12.028597      -327.3148
   7   2.0000     -12.028525      -327.3128
   8   2.0000      -1.341425       -36.5020
   9   2.0000      -1.280251       -34.8374
  10   2.0000      -1.241964       -33.7956
  11   2.0000      -1.193626       -32.4802
  12   2.0000      -1.148550       -31.2536
  13   2.0000      -1.092205       -29.7204
  14   2.0000      -1.055489       -28.7213
  15   2.0000      -0.975995       -26.5582
  16   2.0000      -0.914640       -24.8886
  17   2.0000      -0.884152       -24.0590
  18   2.0000      -0.879419       -23.9302
  19   2.0000      -0.859941       -23.4002
  20   2.0000      -0.858344       -23.3567
  21   2.0000      -0.838708       -22.8224
  22   2.0000      -0.811860       -22.0918
  23   2.0000      -0.810320       -22.0499
  24   2.0000      -0.800720       -21.7887
  25   2.0000      -0.793983       -21.6054
  26   2.0000      -0.783304       -21.3148
  27   2.0000      -0.768824       -20.9208
  28   2.0000      -0.759206       -20.6591
  29   2.0000      -0.740254       -20.1433
  30   2.0000      -0.733548       -19.9608
  31   2.0000      -0.732773       -19.9398
  32   0.0000      -0.040641        -1.1059
  33   0.0000      -0.027947        -0.7605
  34   0.0000      -0.022201        -0.6041
  35   0.0000      -0.020377        -0.5545
  36   0.0000      -0.018855        -0.5131

MULLIKEN ATOMIC CHARGES
-----------------------
   0 C :   -0.397888
   1 C :    0.061004
   2 C :   -0.236562
   3 C :   -0.236539
   4 C :    0.060953
   5 C :   -0.236593
   6 C :   -0.236520
   7 C :   -0.397814
   8 H :    0.111224
   9 H :    0.111215
  10 H :    0.109237
  11 H :    0.067628
  12 H :    0.106511
  13 H :    0.098826
  14 H :    0.098835
  15 H :    0.106500
  16 H :    0.067616
  17 H :    0.098857
  18 H :    0.106518
  19 H :    0.106498
  20 H :    0.098857
  21 H :    0.111213
  22 H :    0.109227
  23 H :    0.111197
Sum of atomic charges:    0.0000000

LOEWDIN ATOMIC CHARGES
----------------------
   0 C :   -0.280644
   1 C :   -0.279609
   2 C :   -0.235172
   3 C :   -0.235171
   4 C :   -0.279597
   5 C :   -0.235173
   6 C :   -0.235174
   7 C :   -0.280646
   8 H :    0.118301
   9 H :    0.118301
  10 H :    0.114703
  11 H :    0.145635
  12 H :    0.133898
  13 H :    0.132929
  14 H :    0.132930
  15 H :    0.133895
  16 H :    0.145637
  17 H :    0.132929
  18 H :    0.133901
  19 H :    0.133901
  20 H :    0.132926
  21 H :    0.118300
  22 H :    0.114703
  23 H :    0.118298

  Mayer bond orders larger than 0.100000
B(  0-C ,  1-C ) :   0.9603 B(  0-C ,  8-H ) :   0.9830 B(  0-C ,  9-H ) :   0.9830
B(  0-C , 10-H ) :   0.9799 B(  1-C ,  2-C ) :   0.9709 B(  1-C ,  6-C ) :   0.9709
B(  1-C , 11-H ) :   0.9706 B(  2-C ,  3-C ) :   0.9659 B(  2-C , 12-H ) :   0.9849
B(  2-C , 13-H ) :   0.9805 B(  3-C ,  4-C ) :   0.9709 B(  3-C , 14-H ) :   0.9805
B(  3-C , 15-H ) :   0.9849 B(  4-C ,  5-C ) :   0.9709 B(  4-C ,  7-C ) :   0.9604
B(  4-C , 16-H ) :   0.9706 B(  5-C ,  6-C ) :   0.9659 B(  5-C , 17-H ) :   0.9805
B(  5-C , 18-H ) :   0.9849 B(  6-C , 19-H ) :   0.9849 B(  6-C , 20-H ) :   0.9805
B(  7-C , 21-H ) :   0.9829 B(  7-C , 22-H ) :   0.9799 B(  7-C , 23-H ) :   0.9829

FINAL SINGLE POINT ENERGY      -314.516521704006

DIPOLE MOMENT
-------------

Method             : SCF
Type of density    : Electron Density
Multiplicity       :   1
Irrep              :   0
Energy             :  -314.5339549692059222 Eh
Relativity type    :
Basis              : AO
                                X                 Y                 Z
Electronic contribution:     -0.000480951       0.000097940       0.000379940
Nuclear contribution   :      0.000462157      -0.000118152      -0.000399326
                        -----------------------------------------
Total Dipole Moment    :     -0.000018794      -0.000020212      -0.000019386
                        -----------------------------------------
Magnitude (a.u.)       :      0.000033728
Magnitude (Debye)      :      0.000085729

Rotational constants in cm-1:             0.106801             0.054798             0.046872
Rotational constants in MHz :          3201.816526          1642.811481          1405.183119

                             ****ORCA TERMINATED NORMALLY****
TOTAL RUN TIME: 0 days 0 hours 3 minutes 48 seconds 294 msec
