                         Program Version 6.0.0  -   RELEASE  -
|  1> ! wb97x-v def2-tzvp def2/J RIJCOSX DEFGRID2 scfconv7 GCP(DFT/TZ) printgap
|  2> %output
|  3>     printlevel normal
|  4> end
|  5> %cpcm
|  6>     smd true
|  7>     smdsolvent "water"
|  8> end
|  9> * xyz 0 1
| 10> C -2.4063772349528545 -2.282420684613779e-05 -0.5356767641147587
| 11> C -1.3822453635424228 1.393211721810825e-05 0.6026494047577504
| 12> C -0.49786905503715867 -1.2580244840718922 0.582733839737707
| 13> C 0.49778012231731844 -1.2580626522954557 -0.5825086926094336
| 14> C 1.3821258750849696 8.521114241408285e-06 -0.6027100410518548
| 15> C 0.4978051272739328 1.2580948706148034 -0.5824796714784076
| 16> C -0.49785711889964845 1.2580409842634754 0.582745757422268
| 17> C 2.406677494999587 -5.372643798603489e-05 0.53524003212255
| 18> H -3.0495911796613657 -0.8854768437187392 -0.4787213187169532
| 19> H -3.0488470382816093 0.8860196332632779 -0.4794853187227478
| 20> H -1.9317084149192356 -0.0006550465782866294 -1.5218548869544797
| 21> H -1.945103985616152 2.4708935157832754e-05 1.5460866743472723
| 22> H 0.05173883429384377 -1.3199844554599591 1.530836510973901
| 23> H -1.1297158277695898 -2.1537306657108433 0.5298026554180868
| 24> H 1.1297124235546596 -2.1536976756621473 -0.5294184176087672
| 25> H -0.05184095429343009 -1.320274202397229 -1.5305829094779309
| 26> H 1.944650411599969 2.5484508358761498e-05 -1.5463467900828005
| 27> H 1.1297662679708897 2.1537074578254627 -0.5293383213593473
| 28> H -0.051801915760191775 1.32036178098465 -1.5305615254284564
| 29> H 0.05173349554509914 1.3200083325085443 1.5308605051070239
| 30> H -1.129712021773772 2.15374085037388 0.5297982504758479
| 31> H 3.049728458115807 -0.885615849574107 0.4781335297285351
| 32> H 1.9323800590167488 -0.0004896173107602242 1.5215992339400446
| 33> H 3.0492663773414943 0.8858782734708924 0.47868277525113095
| 34> *
| 35>
| 36>                          ****END OF INPUT****

CARTESIAN COORDINATES (ANGSTROEM)
---------------------------------
  C     -2.406377   -0.000023   -0.535677
  C     -1.382245    0.000014    0.602649
  C     -0.497869   -1.258024    0.582734
  C      0.497780   -1.258063   -0.582509
  C      1.382126    0.000009   -0.602710
  C      0.497805    1.258095   -0.582480
  C     -0.497857    1.258041    0.582746
  C      2.406677   -0.000054    0.535240
  H     -3.049591   -0.885477   -0.478721
  H     -3.048847    0.886020   -0.479485
  H     -1.931708   -0.000655   -1.521855
  H     -1.945104    0.000025    1.546087
  H      0.051739   -1.319984    1.530837
  H     -1.129716   -2.153731    0.529803
  H      1.129712   -2.153698   -0.529418
  H     -0.051841   -1.320274   -1.530583
  H      1.944650    0.000025   -1.546347
  H      1.129766    2.153707   -0.529338
  H     -0.051802    1.320362   -1.530562
  H      0.051733    1.320008    1.530861
  H     -1.129712    2.153741    0.529798
  H      3.049728   -0.885616    0.478134
  H      1.932380   -0.000490    1.521599
  H      3.049266    0.885878    0.478683

 Total Charge           Charge          ....    0
 Multiplicity           Mult            ....    1
 Number of Electrons    NEL             ....   64
 Basis Dimension        Dim             ....  344

ORBITAL ENERGIES
----------------

  NO   OCC          E(Eh)            E(eV)
   0   2.0000     -12.034000      -327.4618
   1   2.0000     -12.033809      -327.4566
   2   2.0000     -12.025424      -327.2284
   3   2.0000     -12.024985      -327.2165
   4   2.0000     -12.024089      -327.1921
   5   2.0000     -12.023989      -327.1894
   6   2.0000     -12.020017      -327.0813
   7   2.0000     -12.019946      -327.0794
   8   2.0000      -1.333103       -36.2756
   9   2.0000      -1.272079       -34.6150
  10   2.0000      -1.233772       -33.5726
  11   2.0000      -1.185651       -32.2632
  12   2.0000      -1.140518       -31.0351
  13   2.0000      -1.084065       -29.4989
  14   2.0000      -1.047483       -28.5035
  15   2.0000      -0.967915       -26.3383
  16   2.0000      -0.906454       -24.6659
  17   2.0000      -0.875744       -23.8302
  18   2.0000      -0.870963       -23.7001
  19   2.0000      -0.851837       -23.1797
  20   2.0000      -0.850121       -23.1330
  21   2.0000      -0.830438       -22.5974
  22   2.0000      -0.803730       -21.8706
  23   2.0000      -0.801950       -21.8222
  24   2.0000      -0.792614       -21.5681
  25   2.0000      -0.785765       -21.3818
  26   2.0000      -0.775092       -21.0913
  27   2.0000      -0.760415       -20.6919
  28   2.0000      -0.750714       -20.4280
  29   2.0000      -0.731732       -19.9114
  30   2.0000      -0.725441       -19.7402
  31   2.0000      -0.724427       -19.7127
  32   0.0000      -0.030664        -0.8344
  33   0.0000      -0.020214        -0.5500
  34   0.0000      -0.013839        -0.3766
  35   0.0000      -0.012899        -0.3510
  36   0.0000      -0.010335        -0.2812

MULLIKEN ATOMIC CHARGES
-----------------------
   0 C :   -0.454704
   1 C :    0.061612
   2 C :   -0.259334
   3 C :   -0.259325
   4 C :    0.061587
   5 C :   -0.259372
   6 C :   -0.259282
   7 C :   -0.454638
   8 H :    0.125397
   9 H :    0.125389
  10 H :    0.129801
  11 H :    0.076157
  12 H :    0.117246
  13 H :    0.110248
  14 H :    0.110257
  15 H :    0.117238
  16 H :    0.076145
  17 H :    0.110279
  18 H :    0.117245
  19 H :    0.117225
  20 H :    0.110279
  21 H :    0.125389
  22 H :    0.129787
  23 H :    0.125373
Sum of atomic charges:    0.0000000

LOEWDIN ATOMIC CHARGES
----------------------
   0 C :   -0.287931
   1 C :   -0.279987
   2 C :   -0.238279
   3 C :   -0.238278
   4 C :   -0.279974
   5 C :   -0.238280
   6 C :   -0.238281
   7 C :   -0.287933
   8 H :    0.119710
   9 H :    0.119711
  10 H :    0.118291
  11 H :    0.146802
  12 H :    0.136026
  13 H :    0.133953
  14 H :    0.133954
  15 H :    0.136023
  16 H :    0.146805
  17 H :    0.133954
  18 H :    0.136027
  19 H :    0.136028
  20 H :    0.133952
  21 H :    0.119709
  22 H :    0.118290
  23 H :    0.119709

  Mayer bond orders larger than 0.100000
B(  0-C ,  1-C ) :   0.9512 B(  0-C ,  8-H ) :   0.9811 B(  0-C ,  9-H ) :   0.9811
B(  0-C , 10-H ) :   0.9769 B(  1-C ,  2-C ) :   0.9710 B(  1-C ,  6-C ) :   0.9711
B(  1-C , 11-H ) :   0.9695 B(  2-C ,  3-C ) :   0.9693 B(  2-C , 12-H ) :   0.9818
B(  2-C , 13-H ) :   0.9792 B(  3-C ,  4-C ) :   0.9710 B(  3-C , 14-H ) :   0.9792
B(  3-C , 15-H ) :   0.9818 B(  4-C ,  5-C ) :   0.9710 B(  4-C ,  7-C ) :   0.9513
B(  4-C , 16-H ) :   0.9695 B(  5-C ,  6-C ) :   0.9692 B(  5-C , 17-H ) :   0.9792
B(  5-C , 18-H ) :   0.9818 B(  6-C , 19-H ) :   0.9818 B(  6-C , 20-H ) :   0.9792
B(  7-C , 21-H ) :   0.9811 B(  7-C , 22-H ) :   0.9769 B(  7-C , 23-H ) :   0.9811

FINAL SINGLE POINT ENERGY      -314.513781553356

DIPOLE MOMENT
-------------

Method             : SCF
Type of density    : Electron Density
Multiplicity       :   1
Irrep              :   0
Energy             :  -314.5312148185557248 Eh
Relativity type    :
Basis              : AO
                                X                 Y                 Z
Electronic contribution:     -0.000475298       0.000094017       0.000367882
Nuclear contribution   :      0.000462157      -0.000118152      -0.000399326
                        -----------------------------------------
Total Dipole Moment    :     -0.000013141      -0.000024135      -0.000031444
                        -----------------------------------------
Magnitude (a.u.)       :      0.000041761
Magnitude (Debye)      :      0.000106147

Rotational constants in cm-1:             0.106801             0.054798             0.046872
Rotational constants in MHz :          3201.816526          1642.811481          1405.183119

                             ****ORCA TERMINATED NORMALLY****
TOTAL RUN TIME: 0 days 0 hours 3 minutes 40 seconds 368 msec
