                         Program Version 6.0.0  -   RELEASE  -
|  1> ! pbe def2-sv(p) def2/J RI DEFGRID1 loosescf d4 GCP(DFT/SV(P)) printgap
|  2> %output
|  3>     printlevel normal
|  4> end
|  5> * xyz 0 1
|  6> C -2.0809558815 0.0098216427 0.1313951743
|  7> C -0.7652492041 0.6382625003 -0.3146080406
|  8> C 0.4703298327 0.0009424916 0.3316266708
|  9> C 0.6725927301 -1.4399800641 -0.1322352637
| 10> C 1.7130275767 0.8294201892 0.0074491711
| 11> H -2.9200374896 0.559243344 -0.289014467
| 12> H -2.1648964287 0.0329530026 1.2158502136
| 13> H -2.1548691887 -1.0229606252 -0.1981769427
| 14> H -0.6774185238 0.5645842325 -1.4011042211
| 15> H -0.7811266686 1.7001177909 -0.0569105897
| 16> H 0.3284083565 0.0002561268 1.4186980165
| 17> H 1.5771849883 -1.8536033303 0.3078063116
| 18> H 0.7700180477 -1.4774137145 -1.2153146251
| 19> H -0.1635306267 -2.0678936938 0.1624531401
| 20> H 1.5991971467 1.8507411849 0.3637250622
| 21> H 1.8774602544 0.8572796026 -1.0677027572
| 22> H 2.5934797188 0.3982932119 0.4781227996
| 23> *
| 24>
| 25>                          ****END OF INPUT****

CARTESIAN COORDINATES (ANGSTROEM)
---------------------------------
  C     -2.080956    0.009822    0.131395
  C     -0.765249    0.638263   -0.314608
  C      0.470330    0.000942    0.331627
  C      0.672593   -1.439980   -0.132235
  C      1.713028    0.829420    0.007449
  H     -2.920037    0.559243   -0.289014
  H     -2.164896    0.032953    1.215850
  H     -2.154869   -1.022961   -0.198177
  H     -0.677419    0.564584   -1.401104
  H     -0.781127    1.700118   -0.056911
  H      0.328408    0.000256    1.418698
  H      1.577185   -1.853603    0.307806
  H      0.770018   -1.477414   -1.215315
  H     -0.163531   -2.067894    0.162453
  H      1.599197    1.850741    0.363725
  H      1.877460    0.857280   -1.067703
  H      2.593480    0.398293    0.478123

 Total Charge           Charge          ....    0
 Multiplicity           Mult            ....    1
 Number of Electrons    NEL             ....   42
 Basis Dimension        Dim             ....   94

ORBITAL ENERGIES
----------------

  NO   OCC          E(Eh)            E(eV)
   0   2.0000      -9.889312      -269.1019
   1   2.0000      -9.878068      -268.7959
   2   2.0000      -9.869412      -268.5604
   3   2.0000      -9.868404      -268.5329
   4   2.0000      -9.867663      -268.5128
   5   2.0000      -0.728664       -19.8280
   6   2.0000      -0.654820       -17.8186
   7   2.0000      -0.606753       -16.5106
   8   2.0000      -0.552071       -15.0226
   9   2.0000      -0.491702       -13.3799
  10   2.0000      -0.415453       -11.3050
  11   2.0000      -0.395475       -10.7614
  12   2.0000      -0.382348       -10.4042
  13   2.0000      -0.362445        -9.8626
  14   2.0000      -0.338274        -9.2049
  15   2.0000      -0.334022        -9.0892
  16   2.0000      -0.313340        -8.5264
  17   2.0000      -0.303491        -8.2584
  18   2.0000      -0.278999        -7.5920
  19   2.0000      -0.275274        -7.4906
  20   2.0000      -0.270882        -7.3711
  21   0.0000       0.035773         0.9734
  22   0.0000       0.065293         1.7767
  23   0.0000       0.070601         1.9212
  24   0.0000       0.080662         2.1949
  25   0.0000       0.102971         2.8020

MULLIKEN ATOMIC CHARGES
-----------------------
   0 C :   -0.266095
   1 C :   -0.163051
   2 C :   -0.183238
   3 C :   -0.252719
   4 C :   -0.233390
   5 H :    0.100459
   6 H :    0.095410
   7 H :    0.103152
   8 H :    0.077327
   9 H :    0.079765
  10 H :    0.069032
  11 H :    0.096876
  12 H :    0.091113
  13 H :    0.103404
  14 H :    0.095459
  15 H :    0.090466
  16 H :    0.096030
Sum of atomic charges:    0.0000000

LOEWDIN ATOMIC CHARGES
----------------------
   0 C :   -0.341674
   1 C :   -0.225581
   2 C :   -0.158881
   3 C :   -0.330765
   4 C :   -0.328908
   5 H :    0.119269
   6 H :    0.116594
   7 H :    0.116266
   8 H :    0.112622
   9 H :    0.112820
  10 H :    0.111908
  11 H :    0.117245
  12 H :    0.116045
  13 H :    0.116293
  14 H :    0.115375
  15 H :    0.115757
  16 H :    0.115615

  Mayer bond orders larger than 0.100000
B(  0-C ,  1-C ) :   1.1583 B(  0-C ,  5-H ) :   0.9512 B(  0-C ,  6-H ) :   0.9533
B(  0-C ,  7-H ) :   0.9488 B(  1-C ,  2-C ) :   1.0858 B(  1-C ,  8-H ) :   0.9212
B(  1-C ,  9-H ) :   0.9271 B(  2-C ,  3-C ) :   1.1056 B(  2-C ,  4-C ) :   1.1142
B(  2-C , 10-H ) :   0.9047 B(  3-C , 11-H ) :   0.9509 B(  3-C , 12-H ) :   0.9503
B(  3-C , 13-H ) :   0.9476 B(  4-C , 14-H ) :   0.9500 B(  4-C , 15-H ) :   0.9502
B(  4-C , 16-H ) :   0.9518

Dispersion correction           -0.011596443
FINAL SINGLE POINT ENERGY      -197.237365921400

DIPOLE MOMENT
-------------

Method             : SCF
Type of density    : Electron Density
Multiplicity       :   1
Irrep              :   0
Energy             :  -197.2951495537334665 Eh
Relativity type    :
Basis              : AO
                                X                 Y                 Z
Electronic contribution:      0.093451850       0.437600131       0.288433080
Nuclear contribution   :     -0.108949003      -0.430055607      -0.264156119
                        -----------------------------------------
Total Dipole Moment    :     -0.015497153       0.007544524       0.024276960
                        -----------------------------------------
Magnitude (a.u.)       :      0.029773350
Magnitude (Debye)      :      0.075677843

Rotational constants in cm-1:             0.245481             0.112921             0.086624
Rotational constants in MHz :          7359.321077          3385.274819          2596.925727

                             ****ORCA TERMINATED NORMALLY****
TOTAL RUN TIME: 0 days 0 hours 0 minutes 6 seconds 380 msec
