                         Program Version 6.0.0  -   RELEASE  -
|  1> ! wb97x-v def2-tzvp def2/J RIJCOSX DEFGRID2 scfconv7 GCP(DFT/TZ) printgap
|  2> %output
|  3>     printlevel normal
|  4> end
|  5> * xyz 0 1
|  6> C -1.578344825677091 -0.06739563309325809 0.5322894335396791
|  7> C -0.6543678372259006 0.4906454855262895 -0.5489327305689882
|  8> C 0.6805883567529329 -0.23760744560335514 -0.6392628504773502
|  9> N 1.4743331933712822 -0.07904666148846315 0.5962423579084475
| 10> H -1.1593308789003145 0.062345685639413166 1.5358950765085888
| 11> H -2.54864845049277 0.4395938532918528 0.5191121355306689
| 12> H -1.757862844193907 -1.138011140792191 0.37797753021587255
| 13> H -0.4737007698684837 1.5585305459160865 -0.37039087798628206
| 14> H -1.1502419148032559 0.41147092645072947 -1.5241499990247058
| 15> H 0.48912046071834714 -1.2955946234336524 -0.8862222949429788
| 16> H 1.2611132324758154 0.1800101449297666 -1.4693640308523934
| 17> H 2.3439248577244096 -0.5911544722692251 0.4822769580773987
| 18> H 0.9885696702779696 -0.5566706574674468 1.3500204429179719
| 19> *
| 20>
| 21>                          ****END OF INPUT****

CARTESIAN COORDINATES (ANGSTROEM)
---------------------------------
  C     -1.578345   -0.067396    0.532289
  C     -0.654368    0.490645   -0.548933
  C      0.680588   -0.237607   -0.639263
  N      1.474333   -0.079047    0.596242
  H     -1.159331    0.062346    1.535895
  H     -2.548648    0.439594    0.519112
  H     -1.757863   -1.138011    0.377978
  H     -0.473701    1.558531   -0.370391
  H     -1.150242    0.411471   -1.524150
  H      0.489120   -1.295595   -0.886222
  H      1.261113    0.180010   -1.469364
  H      2.343925   -0.591154    0.482277
  H      0.988570   -0.556671    1.350020

 Total Charge           Charge          ....    0
 Multiplicity           Mult            ....    1
 Number of Electrons    NEL             ....   34
 Basis Dimension        Dim             ....  178

ORBITAL ENERGIES
----------------

  NO   OCC          E(Eh)            E(eV)
   0   2.0000     -16.502799      -449.0640
   1   2.0000     -12.063713      -328.2703
   2   2.0000     -12.038214      -327.5765
   3   2.0000     -12.034392      -327.4725
   4   2.0000      -1.439171       -39.1618
   5   2.0000      -1.274841       -34.6902
   6   2.0000      -1.165718       -31.7208
   7   2.0000      -1.056378       -28.7455
   8   2.0000      -0.958097       -26.0711
   9   2.0000      -0.923715       -25.1356
  10   2.0000      -0.864873       -23.5344
  11   2.0000      -0.852013       -23.1845
  12   2.0000      -0.841286       -22.8926
  13   2.0000      -0.786589       -21.4042
  14   2.0000      -0.777493       -21.1567
  15   2.0000      -0.763274       -20.7697
  16   2.0000      -0.713562       -19.4170
  17   0.0000      -0.067379        -1.8335
  18   0.0000      -0.026647        -0.7251
  19   0.0000      -0.002353        -0.0640
  20   0.0000       0.006100         0.1660
  21   0.0000       0.010489         0.2854

MULLIKEN ATOMIC CHARGES
-----------------------
   0 C :   -0.372515
   1 C :   -0.131907
   2 C :   -0.090025
   3 N :   -0.501638
   4 H :    0.109844
   5 H :    0.115334
   6 H :    0.103228
   7 H :    0.092719
   8 H :    0.086970
   9 H :    0.083477
  10 H :    0.094230
  11 H :    0.204410
  12 H :    0.205875
Sum of atomic charges:   -0.0000000

LOEWDIN ATOMIC CHARGES
----------------------
   0 C :   -0.313352
   1 C :   -0.299129
   2 C :   -0.337688
   3 N :   -0.181726
   4 H :    0.113480
   5 H :    0.117464
   6 H :    0.115264
   7 H :    0.133568
   8 H :    0.132045
   9 H :    0.110026
  10 H :    0.123791
  11 H :    0.143652
  12 H :    0.142606

  Mayer bond orders larger than 0.100000
B(  0-C ,  1-C ) :   0.9765 B(  0-C ,  4-H ) :   0.9849 B(  0-C ,  5-H ) :   0.9820
B(  0-C ,  6-H ) :   0.9757 B(  1-C ,  2-C ) :   0.9890 B(  1-C ,  7-H ) :   0.9726
B(  1-C ,  8-H ) :   0.9734 B(  2-C ,  3-N ) :   0.9940 B(  2-C ,  9-H ) :   0.9808
B(  2-C , 10-H ) :   0.9720 B(  3-N , 11-H ) :   0.9451 B(  3-N , 12-H ) :   0.9448

FINAL SINGLE POINT ENERGY      -174.489754481643

DIPOLE MOMENT
-------------

Method             : SCF
Type of density    : Electron Density
Multiplicity       :   1
Irrep              :   0
Energy             :  -174.4988777315429331 Eh
Relativity type    :
Basis              : AO
                                X                 Y                 Z
Electronic contribution:      1.789264082       0.384167932      -0.071999401
Nuclear contribution   :     -1.872754424      -0.898983853      -0.052358111
                        -----------------------------------------
Total Dipole Moment    :     -0.083490342      -0.514815921      -0.124357511
                        -----------------------------------------
Magnitude (a.u.)       :      0.536163091
Magnitude (Debye)      :      1.362818273

Rotational constants in cm-1:             0.462095             0.166259             0.139264
Rotational constants in MHz :         13853.262081          4984.312800          4175.026767

                             ****ORCA TERMINATED NORMALLY****
TOTAL RUN TIME: 0 days 0 hours 0 minutes 48 seconds 60 msec
