                         Program Version 6.0.0  -   RELEASE  -
|  1> ! wb97x-v def2-tzvp def2/J RIJCOSX DEFGRID2 scfconv7 GCP(DFT/TZ) printgap
|  2> %output
|  3>     printlevel normal
|  4> end
|  5> %cpcm
|  6>     smd true
|  7>     smdsolvent "water"
|  8> end
|  9> * xyz 0 1
| 10> C -1.578344825677091 -0.06739563309325809 0.5322894335396791
| 11> C -0.6543678372259006 0.4906454855262895 -0.5489327305689882
| 12> C 0.6805883567529329 -0.23760744560335514 -0.6392628504773502
| 13> N 1.4743331933712822 -0.07904666148846315 0.5962423579084475
| 14> H -1.1593308789003145 0.062345685639413166 1.5358950765085888
| 15> H -2.54864845049277 0.4395938532918528 0.5191121355306689
| 16> H -1.757862844193907 -1.138011140792191 0.37797753021587255
| 17> H -0.4737007698684837 1.5585305459160865 -0.37039087798628206
| 18> H -1.1502419148032559 0.41147092645072947 -1.5241499990247058
| 19> H 0.48912046071834714 -1.2955946234336524 -0.8862222949429788
| 20> H 1.2611132324758154 0.1800101449297666 -1.4693640308523934
| 21> H 2.3439248577244096 -0.5911544722692251 0.4822769580773987
| 22> H 0.9885696702779696 -0.5566706574674468 1.3500204429179719
| 23> *
| 24>
| 25>                          ****END OF INPUT****

CARTESIAN COORDINATES (ANGSTROEM)
---------------------------------
  C     -1.578345   -0.067396    0.532289
  C     -0.654368    0.490645   -0.548933
  C      0.680588   -0.237607   -0.639263
  N      1.474333   -0.079047    0.596242
  H     -1.159331    0.062346    1.535895
  H     -2.548648    0.439594    0.519112
  H     -1.757863   -1.138011    0.377978
  H     -0.473701    1.558531   -0.370391
  H     -1.150242    0.411471   -1.524150
  H      0.489120   -1.295595   -0.886222
  H      1.261113    0.180010   -1.469364
  H      2.343925   -0.591154    0.482277
  H      0.988570   -0.556671    1.350020

 Total Charge           Charge          ....    0
 Multiplicity           Mult            ....    1
 Number of Electrons    NEL             ....   34
 Basis Dimension        Dim             ....  178

ORBITAL ENERGIES
----------------

  NO   OCC          E(Eh)            E(eV)
   0   2.0000     -16.498030      -448.9342
   1   2.0000     -12.055641      -328.0507
   2   2.0000     -12.031231      -327.3864
   3   2.0000     -12.024945      -327.2154
   4   2.0000      -1.433460       -39.0064
   5   2.0000      -1.267447       -34.4890
   6   2.0000      -1.157839       -31.5064
   7   2.0000      -1.049124       -28.5481
   8   2.0000      -0.951997       -25.9052
   9   2.0000      -0.917645       -24.9704
  10   2.0000      -0.857597       -23.3364
  11   2.0000      -0.844143       -22.9703
  12   2.0000      -0.833817       -22.6893
  13   2.0000      -0.779475       -21.2106
  14   2.0000      -0.769271       -20.9329
  15   2.0000      -0.755999       -20.5718
  16   2.0000      -0.710143       -19.3240
  17   0.0000      -0.059304        -1.6137
  18   0.0000      -0.015309        -0.4166
  19   0.0000       0.005320         0.1448
  20   0.0000       0.018207         0.4954
  21   0.0000       0.021183         0.5764

MULLIKEN ATOMIC CHARGES
-----------------------
   0 C :   -0.402043
   1 C :   -0.155623
   2 C :   -0.106184
   3 N :   -0.602989
   4 H :    0.122388
   5 H :    0.129263
   6 H :    0.118140
   7 H :    0.091062
   8 H :    0.103542
   9 H :    0.100126
  10 H :    0.110717
  11 H :    0.245064
  12 H :    0.246536
Sum of atomic charges:    0.0000000

LOEWDIN ATOMIC CHARGES
----------------------
   0 C :   -0.318092
   1 C :   -0.304605
   2 C :   -0.338211
   3 N :   -0.209272
   4 H :    0.116295
   5 H :    0.118718
   6 H :    0.118995
   7 H :    0.130148
   8 H :    0.135849
   9 H :    0.115842
  10 H :    0.125936
  11 H :    0.154620
  12 H :    0.153776

  Mayer bond orders larger than 0.100000
B(  0-C ,  1-C ) :   0.9760 B(  0-C ,  4-H ) :   0.9795 B(  0-C ,  5-H ) :   0.9788
B(  0-C ,  6-H ) :   0.9737 B(  1-C ,  2-C ) :   0.9842 B(  1-C ,  7-H ) :   0.9735
B(  1-C ,  8-H ) :   0.9729 B(  2-C ,  3-N ) :   0.9844 B(  2-C ,  9-H ) :   0.9860
B(  2-C , 10-H ) :   0.9745 B(  3-N , 11-H ) :   0.9318 B(  3-N , 12-H ) :   0.9314

FINAL SINGLE POINT ENERGY      -174.496011992941

DIPOLE MOMENT
-------------

Method             : SCF
Type of density    : Electron Density
Multiplicity       :   1
Irrep              :   0
Energy             :  -174.5051352428406233 Eh
Relativity type    :
Basis              : AO
                                X                 Y                 Z
Electronic contribution:      1.763204886       0.169552317      -0.112606429
Nuclear contribution   :     -1.872754424      -0.898983853      -0.052358111
                        -----------------------------------------
Total Dipole Moment    :     -0.109549538      -0.729431536      -0.164964539
                        -----------------------------------------
Magnitude (a.u.)       :      0.755833822
Magnitude (Debye)      :      1.921176897

Rotational constants in cm-1:             0.462095             0.166259             0.139264
Rotational constants in MHz :         13853.262081          4984.312800          4175.026767

                             ****ORCA TERMINATED NORMALLY****
TOTAL RUN TIME: 0 days 0 hours 0 minutes 50 seconds 505 msec
