                         Program Version 6.0.0  -   RELEASE  -
|  1> ! wb97x-v def2-tzvp def2/J RIJCOSX DEFGRID2 scfconv7 GCP(DFT/TZ) printgap
|  2> %output
|  3>     printlevel normal
|  4> end
|  5> * xyz 0 1
|  6> C -2.5045714092152407 0.037311424782010556 0.020500718882787417
|  7> C -1.0825644973717192 -0.5160693561179871 -0.040613646973159105
|  8> C -0.05769371242078594 0.606212371434585 0.0532727698296335
|  9> S 1.652191885307777 -0.10730708319025953 -0.024976393289490615
| 10> H -2.675892612674057 0.5760644832281722 0.9586058016765172
| 11> H -2.6922301435273335 0.7306327156687934 -0.8064251679317794
| 12> H -3.2405101637856824 -0.7701090293548343 -0.04346427187348158
| 13> H -0.9390296183249389 -1.0685090118074154 -0.977018283387887
| 14> H -0.9257649559587576 -1.226888665609656 0.7796790462441487
| 15> H -0.18141096720653369 1.309696745320846 -0.7751910528956547
| 16> H -0.16814720516668916 1.1484309516944133 0.9968133236160297
| 17> H 2.321479561156764 1.0556685419782854 0.08205456354633034
| 18> *
| 19>
| 20>                          ****END OF INPUT****

CARTESIAN COORDINATES (ANGSTROEM)
---------------------------------
  C     -2.504571    0.037311    0.020501
  C     -1.082564   -0.516069   -0.040614
  C     -0.057694    0.606212    0.053273
  S      1.652192   -0.107307   -0.024976
  H     -2.675893    0.576064    0.958606
  H     -2.692230    0.730633   -0.806425
  H     -3.240510   -0.770109   -0.043464
  H     -0.939030   -1.068509   -0.977018
  H     -0.925765   -1.226889    0.779679
  H     -0.181411    1.309697   -0.775191
  H     -0.168147    1.148431    0.996813
  H      2.321480    1.055669    0.082055

 Total Charge           Charge          ....    0
 Multiplicity           Mult            ....    1
 Number of Electrons    NEL             ....   42
 Basis Dimension        Dim             ....  178

ORBITAL ENERGIES
----------------

  NO   OCC          E(Eh)            E(eV)
   0   2.0000     -94.117871     -2561.0775
   1   2.0000     -12.080293      -328.7215
   2   2.0000     -12.053719      -327.9984
   3   2.0000     -12.042872      -327.7032
   4   2.0000      -9.629140      -262.0222
   5   2.0000      -7.606666      -206.9879
   6   2.0000      -7.605694      -206.9615
   7   2.0000      -7.605186      -206.9476
   8   2.0000      -1.313589       -35.7446
   9   2.0000      -1.236362       -33.6431
  10   2.0000      -1.145198       -31.1624
  11   2.0000      -1.060647       -28.8617
  12   2.0000      -0.901638       -24.5348
  13   2.0000      -0.874645       -23.8003
  14   2.0000      -0.865626       -23.5549
  15   2.0000      -0.830826       -22.6079
  16   2.0000      -0.803893       -21.8750
  17   2.0000      -0.787380       -21.4257
  18   2.0000      -0.765317       -20.8253
  19   2.0000      -0.744197       -20.2506
  20   2.0000      -0.640649       -17.4329
  21   0.0000      -0.198296        -5.3959
  22   0.0000      -0.111658        -3.0384
  23   0.0000      -0.023636        -0.6432
  24   0.0000      -0.005870        -0.1597
  25   0.0000       0.004346         0.1183

MULLIKEN ATOMIC CHARGES
-----------------------
   0 C :   -0.342977
   1 C :   -0.165840
   2 C :   -0.170037
   3 S :   -0.219217
   4 H :    0.107281
   5 H :    0.107509
   6 H :    0.119099
   7 H :    0.103168
   8 H :    0.103183
   9 H :    0.112489
  10 H :    0.112495
  11 H :    0.132846
Sum of atomic charges:   -0.0000000

LOEWDIN ATOMIC CHARGES
----------------------
   0 C :   -0.306122
   1 C :   -0.325197
   2 C :   -0.461423
   3 S :    0.207825
   4 H :    0.116830
   5 H :    0.116828
   6 H :    0.118501
   7 H :    0.132796
   8 H :    0.132845
   9 H :    0.118671
  10 H :    0.118709
  11 H :    0.029737

  Mayer bond orders larger than 0.100000
B(  0-C ,  1-C ) :   0.9779 B(  0-C ,  4-H ) :   0.9787 B(  0-C ,  5-H ) :   0.9787
B(  0-C ,  6-H ) :   0.9817 B(  1-C ,  2-C ) :   0.9956 B(  1-C ,  7-H ) :   0.9701
B(  1-C ,  8-H ) :   0.9702 B(  2-C ,  3-S ) :   1.0789 B(  2-C ,  9-H ) :   0.9670
B(  2-C , 10-H ) :   0.9670 B(  3-S , 11-H ) :   0.9738

FINAL SINGLE POINT ENERGY      -517.280071226559

DIPOLE MOMENT
-------------

Method             : SCF
Type of density    : Electron Density
Multiplicity       :   1
Irrep              :   0
Energy             :  -517.2882999878585224 Eh
Relativity type    :
Basis              : AO
                                X                 Y                 Z
Electronic contribution:      7.590447309      -1.216875734      -0.174478779
Nuclear contribution   :     -8.084776120       1.663375279       0.220710703
                        -----------------------------------------
Total Dipole Moment    :     -0.494328811       0.446499544       0.046231923
                        -----------------------------------------
Magnitude (a.u.)       :      0.667727644
Magnitude (Debye)      :      1.697228791

Rotational constants in cm-1:             0.797997             0.078731             0.074674
Rotational constants in MHz :         23923.348134          2360.297396          2238.673935

                             ****ORCA TERMINATED NORMALLY****
TOTAL RUN TIME: 0 days 0 hours 0 minutes 45 seconds 631 msec
