                         Program Version 6.0.0  -   RELEASE  -
|  1> ! wb97x-v def2-tzvp def2/J RIJCOSX DEFGRID2 scfconv7 GCP(DFT/TZ) printgap
|  2> %output
|  3>     printlevel normal
|  4> end
|  5> %cpcm
|  6>     smd true
|  7>     smdsolvent "water"
|  8> end
|  9> * xyz 0 1
| 10> C -2.5045714092152407 0.037311424782010556 0.020500718882787417
| 11> C -1.0825644973717192 -0.5160693561179871 -0.040613646973159105
| 12> C -0.05769371242078594 0.606212371434585 0.0532727698296335
| 13> S 1.652191885307777 -0.10730708319025953 -0.024976393289490615
| 14> H -2.675892612674057 0.5760644832281722 0.9586058016765172
| 15> H -2.6922301435273335 0.7306327156687934 -0.8064251679317794
| 16> H -3.2405101637856824 -0.7701090293548343 -0.04346427187348158
| 17> H -0.9390296183249389 -1.0685090118074154 -0.977018283387887
| 18> H -0.9257649559587576 -1.226888665609656 0.7796790462441487
| 19> H -0.18141096720653369 1.309696745320846 -0.7751910528956547
| 20> H -0.16814720516668916 1.1484309516944133 0.9968133236160297
| 21> H 2.321479561156764 1.0556685419782854 0.08205456354633034
| 22> *
| 23>
| 24>                          ****END OF INPUT****

CARTESIAN COORDINATES (ANGSTROEM)
---------------------------------
  C     -2.504571    0.037311    0.020501
  C     -1.082564   -0.516069   -0.040614
  C     -0.057694    0.606212    0.053273
  S      1.652192   -0.107307   -0.024976
  H     -2.675893    0.576064    0.958606
  H     -2.692230    0.730633   -0.806425
  H     -3.240510   -0.770109   -0.043464
  H     -0.939030   -1.068509   -0.977018
  H     -0.925765   -1.226889    0.779679
  H     -0.181411    1.309697   -0.775191
  H     -0.168147    1.148431    0.996813
  H      2.321480    1.055669    0.082055

 Total Charge           Charge          ....    0
 Multiplicity           Mult            ....    1
 Number of Electrons    NEL             ....   42
 Basis Dimension        Dim             ....  178

ORBITAL ENERGIES
----------------

  NO   OCC          E(Eh)            E(eV)
   0   2.0000     -94.116028     -2561.0273
   1   2.0000     -12.069416      -328.4255
   2   2.0000     -12.041520      -327.6664
   3   2.0000     -12.028407      -327.3096
   4   2.0000      -9.627447      -261.9762
   5   2.0000      -7.604987      -206.9422
   6   2.0000      -7.604037      -206.9164
   7   2.0000      -7.603738      -206.9082
   8   2.0000      -1.303070       -35.4583
   9   2.0000      -1.228562       -33.4309
  10   2.0000      -1.135806       -30.9069
  11   2.0000      -1.048881       -28.5415
  12   2.0000      -0.889121       -24.1942
  13   2.0000      -0.865795       -23.5595
  14   2.0000      -0.853208       -23.2170
  15   2.0000      -0.817710       -22.2510
  16   2.0000      -0.794932       -21.6312
  17   2.0000      -0.774738       -21.0817
  18   2.0000      -0.752087       -20.4653
  19   2.0000      -0.740282       -20.1441
  20   2.0000      -0.639757       -17.4087
  21   0.0000      -0.193361        -5.2616
  22   0.0000      -0.104055        -2.8315
  23   0.0000      -0.011644        -0.3168
  24   0.0000       0.007109         0.1935
  25   0.0000       0.016916         0.4603

MULLIKEN ATOMIC CHARGES
-----------------------
   0 C :   -0.392245
   1 C :   -0.163529
   2 C :   -0.188673
   3 S :   -0.295767
   4 H :    0.123673
   5 H :    0.123864
   6 H :    0.132381
   7 H :    0.109113
   8 H :    0.108914
   9 H :    0.137103
  10 H :    0.137241
  11 H :    0.167923
Sum of atomic charges:    0.0000000

LOEWDIN ATOMIC CHARGES
----------------------
   0 C :   -0.310183
   1 C :   -0.326574
   2 C :   -0.455478
   3 S :    0.171983
   4 H :    0.119998
   5 H :    0.119994
   6 H :    0.120389
   7 H :    0.133436
   8 H :    0.133440
   9 H :    0.125514
  10 H :    0.125567
  11 H :    0.041913

  Mayer bond orders larger than 0.100000
B(  0-C ,  1-C ) :   0.9788 B(  0-C ,  4-H ) :   0.9768 B(  0-C ,  5-H ) :   0.9768
B(  0-C ,  6-H ) :   0.9781 B(  1-C ,  2-C ) :   0.9898 B(  1-C ,  7-H ) :   0.9673
B(  1-C ,  8-H ) :   0.9675 B(  2-C ,  3-S ) :   1.0541 B(  2-C ,  9-H ) :   0.9666
B(  2-C , 10-H ) :   0.9667 B(  3-S , 11-H ) :   0.9689

FINAL SINGLE POINT ENERGY      -517.281863530435

DIPOLE MOMENT
-------------

Method             : SCF
Type of density    : Electron Density
Multiplicity       :   1
Irrep              :   0
Energy             :  -517.2900922917345952 Eh
Relativity type    :
Basis              : AO
                                X                 Y                 Z
Electronic contribution:      7.444091903      -1.032303058      -0.156286479
Nuclear contribution   :     -8.084776120       1.663375279       0.220710703
                        -----------------------------------------
Total Dipole Moment    :     -0.640684216       0.631072221       0.064424224
                        -----------------------------------------
Magnitude (a.u.)       :      0.901597967
Magnitude (Debye)      :      2.291679908

Rotational constants in cm-1:             0.797997             0.078731             0.074674
Rotational constants in MHz :         23923.348134          2360.297396          2238.673935

                             ****ORCA TERMINATED NORMALLY****
TOTAL RUN TIME: 0 days 0 hours 0 minutes 45 seconds 676 msec
