                         Program Version 6.0.0  -   RELEASE  -
|  1> ! pbe def2-sv(p) def2/J RI DEFGRID1 loosescf d4 GCP(DFT/SV(P)) printgap
|  2> %output
|  3>     printlevel normal
|  4> end
|  5> * xyz 0 1
|  6> C -2.4172713129 -1.1261064526 -0.294307057
|  7> C -1.0664899844 -0.6158199748 0.2362644737
|  8> H -1.0855593069 -0.6232991501 1.3397564285
|  9> C -0.7590732667 0.8089491384 -0.2542748367
| 10> H -0.7981958695 0.8217986132 -1.3496374684
| 11> C 0.6510654291 1.2453196099 0.1805494088
| 12> H 0.6762283949 1.3822583362 1.2752662539
| 13> C 1.6933862449 0.1810133405 -0.1718184358
| 14> H 1.8363472302 0.1776186887 -1.2610548789
| 15> C 1.2111264084 -1.2181611476 0.2578616937
| 16> H 1.1998017745 -1.2528767594 1.3692935793
| 17> O -0.0781164325 -1.5126107771 -0.226249953
| 18> O 2.0927280228 -2.1436105624 -0.2617857072
| 19> O 2.8860871634 0.5003573567 0.4943851069
| 20> O 1.0165464754 2.441594943 -0.4599126641
| 21> O -1.7216235581 1.7420432356 0.172904355
| 22> O -3.5104581252 -0.4517044932 0.264547591
| 23> H -2.5230680692 -2.177142449 -0.0182143321
| 24> H -2.4142092629 -1.0517313916 -1.3884696608
| 25> H 1.719034299 -3.0351652097 -0.1806494094
| 26> H 3.5777015613 -0.1174342547 0.2141835504
| 27> H 0.2934199146 3.0814399485 -0.3621840144
| 28> H -1.7142936868 1.7995909039 1.1407845733
| 29> H -3.4535528794 0.4878181037 0.0215709682
| 30> *
| 31>
| 32>                          ****END OF INPUT****

CARTESIAN COORDINATES (ANGSTROEM)
---------------------------------
  C     -2.417271   -1.126106   -0.294307
  C     -1.066490   -0.615820    0.236264
  H     -1.085559   -0.623299    1.339756
  C     -0.759073    0.808949   -0.254275
  H     -0.798196    0.821799   -1.349637
  C      0.651065    1.245320    0.180549
  H      0.676228    1.382258    1.275266
  C      1.693386    0.181013   -0.171818
  H      1.836347    0.177619   -1.261055
  C      1.211126   -1.218161    0.257862
  H      1.199802   -1.252877    1.369294
  O     -0.078116   -1.512611   -0.226250
  O      2.092728   -2.143611   -0.261786
  O      2.886087    0.500357    0.494385
  O      1.016546    2.441595   -0.459913
  O     -1.721624    1.742043    0.172904
  O     -3.510458   -0.451704    0.264548
  H     -2.523068   -2.177142   -0.018214
  H     -2.414209   -1.051731   -1.388470
  H      1.719034   -3.035165   -0.180649
  H      3.577702   -0.117434    0.214184
  H      0.293420    3.081440   -0.362184
  H     -1.714294    1.799591    1.140785
  H     -3.453553    0.487818    0.021571

 Total Charge           Charge          ....    0
 Multiplicity           Mult            ....    1
 Number of Electrons    NEL             ....   96
 Basis Dimension        Dim             ....  192

ORBITAL ENERGIES
----------------

  NO   OCC          E(Eh)            E(eV)
   0   2.0000     -18.786855      -511.2163
   1   2.0000     -18.781101      -511.0597
   2   2.0000     -18.770595      -510.7739
   3   2.0000     -18.750137      -510.2172
   4   2.0000     -18.749944      -510.2119
   5   2.0000     -18.744873      -510.0739
   6   2.0000      -9.990689      -271.8605
   7   2.0000      -9.954825      -270.8846
   8   2.0000      -9.951274      -270.7879
   9   2.0000      -9.949294      -270.7341
  10   2.0000      -9.943179      -270.5676
  11   2.0000      -9.934322      -270.3266
  12   2.0000      -0.992974       -27.0202
  13   2.0000      -0.966160       -26.2905
  14   2.0000      -0.937248       -25.5038
  15   2.0000      -0.927288       -25.2328
  16   2.0000      -0.921134       -25.0653
  17   2.0000      -0.915711       -24.9178
  18   2.0000      -0.709625       -19.3099
  19   2.0000      -0.695537       -18.9265
  20   2.0000      -0.618953       -16.8426
  21   2.0000      -0.597326       -16.2541
  22   2.0000      -0.562517       -15.3069
  23   2.0000      -0.540004       -14.6943
  24   2.0000      -0.505333       -13.7508
  25   2.0000      -0.497338       -13.5333
  26   2.0000      -0.483775       -13.1642
  27   2.0000      -0.467586       -12.7237
  28   2.0000      -0.462028       -12.5724
  29   2.0000      -0.440325       -11.9819
  30   2.0000      -0.422522       -11.4974
  31   2.0000      -0.397800       -10.8247
  32   2.0000      -0.383304       -10.4302
  33   2.0000      -0.380016       -10.3408
  34   2.0000      -0.371381       -10.1058
  35   2.0000      -0.358774        -9.7627
  36   2.0000      -0.330077        -8.9819
  37   2.0000      -0.322089        -8.7645
  38   2.0000      -0.311987        -8.4896
  39   2.0000      -0.298614        -8.1257
  40   2.0000      -0.292718        -7.9653
  41   2.0000      -0.279603        -7.6084
  42   2.0000      -0.263235        -7.1630
  43   2.0000      -0.248009        -6.7487
  44   2.0000      -0.239207        -6.5092
  45   2.0000      -0.226524        -6.1640
  46   2.0000      -0.218608        -5.9486
  47   2.0000      -0.202447        -5.5089
  48   0.0000       0.001321         0.0360
  49   0.0000       0.023399         0.6367
  50   0.0000       0.026282         0.7152
  51   0.0000       0.049834         1.3561
  52   0.0000       0.056609         1.5404

MULLIKEN ATOMIC CHARGES
-----------------------
   0 C :    0.103554
   1 C :   -0.011220
   2 H :    0.044793
   3 C :    0.017274
   4 H :    0.075324
   5 C :    0.088085
   6 H :    0.043958
   7 C :    0.053443
   8 H :    0.066167
   9 C :    0.177081
  10 H :    0.036351
  11 O :   -0.307932
  12 O :   -0.387535
  13 O :   -0.408189
  14 O :   -0.402135
  15 O :   -0.423279
  16 O :   -0.447274
  17 H :    0.091049
  18 H :    0.070383
  19 H :    0.311858
  20 H :    0.307182
  21 H :    0.299424
  22 H :    0.306366
  23 H :    0.295270
Sum of atomic charges:   -0.0000000

LOEWDIN ATOMIC CHARGES
----------------------
   0 C :   -0.119054
   1 C :   -0.080395
   2 H :    0.097424
   3 C :   -0.087096
   4 H :    0.122543
   5 C :   -0.070046
   6 H :    0.099508
   7 C :   -0.074944
   8 H :    0.113707
   9 C :   -0.005478
  10 H :    0.079255
  11 O :   -0.150631
  12 O :   -0.299391
  13 O :   -0.311057
  14 O :   -0.313459
  15 O :   -0.300899
  16 O :   -0.340518
  17 H :    0.115957
  18 H :    0.100090
  19 H :    0.293610
  20 H :    0.290312
  21 H :    0.282037
  22 H :    0.287769
  23 H :    0.270755

  Mayer bond orders larger than 0.100000
B(  0-C ,  1-C ) :   1.0222 B(  0-C , 16-O ) :   1.0907 B(  0-C , 17-H ) :   0.9224
B(  0-C , 18-H ) :   0.9108 B(  1-C ,  2-H ) :   0.8725 B(  1-C ,  3-C ) :   0.9895
B(  1-C , 11-O ) :   0.9829 B(  3-C ,  4-H ) :   0.8632 B(  3-C ,  5-C ) :   1.0139
B(  3-C , 15-O ) :   0.9903 B(  5-C ,  6-H ) :   0.8680 B(  5-C ,  7-C ) :   1.0057
B(  5-C , 14-O ) :   1.1054 B(  7-C ,  8-H ) :   0.8681 B(  7-C ,  9-C ) :   0.9909
B(  7-C , 13-O ) :   1.0862 B(  9-C , 10-H ) :   0.8822 B(  9-C , 11-O ) :   1.0035
B(  9-C , 12-O ) :   1.1685 B( 12-O , 19-H ) :   0.8369 B( 13-O , 20-H ) :   0.8417
B( 14-O , 21-H ) :   0.8368 B( 15-O , 22-H ) :   0.8359 B( 16-O , 23-H ) :   0.8209

Dispersion correction           -0.023809998
FINAL SINGLE POINT ENERGY      -685.699754566951

DIPOLE MOMENT
-------------

Method             : SCF
Type of density    : Electron Density
Multiplicity       :   1
Irrep              :   0
Energy             :  -685.8303483508277623 Eh
Relativity type    :
Basis              : AO
                                X                 Y                 Z
Electronic contribution:      2.431838104       0.231776070      -0.398732467
Nuclear contribution   :     -2.510099101      -0.467234985       0.750903087
                        -----------------------------------------
Total Dipole Moment    :     -0.078260997      -0.235458915       0.352170620
                        -----------------------------------------
Magnitude (a.u.)       :      0.430801381
Magnitude (Debye)      :      1.095010088

Rotational constants in cm-1:             0.043701             0.024434             0.016502
Rotational constants in MHz :          1310.117563           732.506676           494.713332

                             ****ORCA TERMINATED NORMALLY****
TOTAL RUN TIME: 0 days 0 hours 0 minutes 11 seconds 813 msec
