                         Program Version 6.0.0  -   RELEASE  -
|  1> ! pbe def2-sv(p) def2/J RI DEFGRID1 loosescf d4 GCP(DFT/SV(P)) printgap
|  2> %output
|  3>     printlevel normal
|  4> end
|  5> * xyz 0 1
|  6> C 2.5800617358 2.6633765051 1.0111389431
|  7> C 2.3425738217 1.7208921168 -0.1667172977
|  8> C 3.158345704 0.410197714 -0.0328151198
|  9> C 2.094299266 -0.6395223344 0.0696540852
| 10> C 2.1772639725 -2.0081914478 0.2123107649
| 11> C 0.9996061621 -2.7371672643 0.2793387244
| 12> C -0.2373372148 -2.1156950706 0.2054118821
| 13> C -0.3277472609 -0.7371474873 0.0623056971
| 14> C 0.8575388763 -0.0071353906 -0.0050861435
| 15> O 0.9374630662 1.3356133454 -0.144463172
| 16> O -1.4927080771 0.0183965379 -0.0278323403
| 17> C -2.7529343241 -0.4715714025 0.0455872775
| 18> O -3.0591461532 -1.6410806957 0.1993450564
| 19> N -3.619577925 0.5405977944 -0.0777431028
| 20> C -5.0533075503 0.3649486645 -0.0469560196
| 21> C 2.6064999409 2.4255026452 -1.4953169625
| 22> H 3.6154392369 2.9898542541 1.0213933445
| 23> H 1.9320040306 3.5312701605 0.9248597642
| 24> H 2.3533855102 2.1547488463 1.9452796331
| 25> H 3.7942575935 0.24637596 -0.9032063828
| 26> H 3.7906564684 0.423818934 0.8551595176
| 27> H 3.1354559106 -2.4987004972 0.270218664
| 28> H 1.0352908099 -3.8088792224 0.3908865776
| 29> H -1.140750566 -2.6997441729 0.2603445989
| 30> H -3.2423580613 1.4681768505 -0.2011301009
| 31> H -5.2560468678 -0.69469392 0.0950736573
| 32> H -5.4936909023 0.6961420372 -0.9866838213
| 33> H -5.484041912 0.9310003586 0.7780241759
| 34> H 3.6434065298 2.7432211608 -1.5459012944
| 35> H 1.9609458874 3.2948017073 -1.5861159478
| 36> H 2.3956148084 1.7510025129 -2.321922541
| 37> *
| 38>
| 39>                          ****END OF INPUT****

CARTESIAN COORDINATES (ANGSTROEM)
---------------------------------
  C      2.580062    2.663377    1.011139
  C      2.342574    1.720892   -0.166717
  C      3.158346    0.410198   -0.032815
  C      2.094299   -0.639522    0.069654
  C      2.177264   -2.008191    0.212311
  C      0.999606   -2.737167    0.279339
  C     -0.237337   -2.115695    0.205412
  C     -0.327747   -0.737147    0.062306
  C      0.857539   -0.007135   -0.005086
  O      0.937463    1.335613   -0.144463
  O     -1.492708    0.018397   -0.027832
  C     -2.752934   -0.471571    0.045587
  O     -3.059146   -1.641081    0.199345
  N     -3.619578    0.540598   -0.077743
  C     -5.053308    0.364949   -0.046956
  C      2.606500    2.425503   -1.495317
  H      3.615439    2.989854    1.021393
  H      1.932004    3.531270    0.924860
  H      2.353386    2.154749    1.945280
  H      3.794258    0.246376   -0.903206
  H      3.790656    0.423819    0.855160
  H      3.135456   -2.498700    0.270219
  H      1.035291   -3.808879    0.390887
  H     -1.140751   -2.699744    0.260345
  H     -3.242358    1.468177   -0.201130
  H     -5.256047   -0.694694    0.095074
  H     -5.493691    0.696142   -0.986684
  H     -5.484042    0.931000    0.778024
  H      3.643407    2.743221   -1.545901
  H      1.960946    3.294802   -1.586116
  H      2.395615    1.751003   -2.321923

 Total Charge           Charge          ....    0
 Multiplicity           Mult            ....    1
 Number of Electrons    NEL             ....  118
 Basis Dimension        Dim             ....  254

ORBITAL ENERGIES
----------------

  NO   OCC          E(Eh)            E(eV)
   0   2.0000     -18.803497      -511.6692
   1   2.0000     -18.780493      -511.0432
   2   2.0000     -18.714789      -509.2553
   3   2.0000     -14.020671      -381.5218
   4   2.0000     -10.025012      -272.7944
   5   2.0000      -9.962669      -271.0980
   6   2.0000      -9.949438      -270.7380
   7   2.0000      -9.939314      -270.4625
   8   2.0000      -9.921147      -269.9681
   9   2.0000      -9.897821      -269.3334
  10   2.0000      -9.892451      -269.1873
  11   2.0000      -9.884487      -268.9706
  12   2.0000      -9.883204      -268.9356
  13   2.0000      -9.883110      -268.9331
  14   2.0000      -9.879863      -268.8448
  15   2.0000      -9.878339      -268.8033
  16   2.0000      -1.007934       -27.4273
  17   2.0000      -0.971868       -26.4459
  18   2.0000      -0.911627       -24.8066
  19   2.0000      -0.843726       -22.9590
  20   2.0000      -0.769299       -20.9337
  21   2.0000      -0.737142       -20.0586
  22   2.0000      -0.692099       -18.8330
  23   2.0000      -0.676857       -18.4182
  24   2.0000      -0.637084       -17.3359
  25   2.0000      -0.627805       -17.0834
  26   2.0000      -0.613646       -16.6982
  27   2.0000      -0.572552       -15.5799
  28   2.0000      -0.547284       -14.8924
  29   2.0000      -0.530368       -14.4320
  30   2.0000      -0.510699       -13.8968
  31   2.0000      -0.493515       -13.4292
  32   2.0000      -0.453629       -12.3439
  33   2.0000      -0.432121       -11.7586
  34   2.0000      -0.430266       -11.7081
  35   2.0000      -0.427780       -11.6405
  36   2.0000      -0.422896       -11.5076
  37   2.0000      -0.412265       -11.2183
  38   2.0000      -0.394390       -10.7319
  39   2.0000      -0.386961       -10.5297
  40   2.0000      -0.382611       -10.4114
  41   2.0000      -0.371200       -10.1009
  42   2.0000      -0.363218        -9.8837
  43   2.0000      -0.357347        -9.7239
  44   2.0000      -0.353042        -9.6067
  45   2.0000      -0.346199        -9.4205
  46   2.0000      -0.337408        -9.1813
  47   2.0000      -0.333516        -9.0754
  48   2.0000      -0.319431        -8.6922
  49   2.0000      -0.317897        -8.6504
  50   2.0000      -0.309394        -8.4190
  51   2.0000      -0.298369        -8.1190
  52   2.0000      -0.286537        -7.7971
  53   2.0000      -0.284388        -7.7386
  54   2.0000      -0.271907        -7.3990
  55   2.0000      -0.219525        -5.9736
  56   2.0000      -0.216533        -5.8922
  57   2.0000      -0.203012        -5.5242
  58   2.0000      -0.176548        -4.8041
  59   0.0000      -0.027562        -0.7500
  60   0.0000      -0.011153        -0.3035
  61   0.0000       0.029481         0.8022
  62   0.0000       0.032149         0.8748
  63   0.0000       0.038651         1.0517

MULLIKEN ATOMIC CHARGES
-----------------------
   0 C :   -0.198232
   1 C :   -0.083201
   2 C :   -0.001390
   3 C :   -0.045114
   4 C :   -0.148300
   5 C :   -0.041167
   6 C :   -0.190547
   7 C :    0.167783
   8 C :    0.161327
   9 O :   -0.256258
  10 O :   -0.241836
  11 C :    0.205740
  12 O :   -0.240084
  13 N :   -0.284294
  14 C :   -0.174145
  15 C :   -0.198583
  16 H :    0.102522
  17 H :    0.106038
  18 H :    0.107941
  19 H :    0.089847
  20 H :    0.089759
  21 H :    0.026703
  22 H :    0.047674
  23 H :    0.076903
  24 H :    0.235104
  25 H :    0.140014
  26 H :    0.114780
  27 H :    0.114761
  28 H :    0.102685
  29 H :    0.105763
  30 H :    0.107809
Sum of atomic charges:    0.0000000

LOEWDIN ATOMIC CHARGES
----------------------
   0 C :   -0.327423
   1 C :    0.019761
   2 C :   -0.198848
   3 C :   -0.073059
   4 C :   -0.133932
   5 C :   -0.139011
   6 C :   -0.150752
   7 C :    0.019179
   8 C :    0.019202
   9 O :   -0.077376
  10 O :   -0.047693
  11 C :    0.038488
  12 O :   -0.207127
  13 N :   -0.169310
  14 C :   -0.256734
  15 C :   -0.327318
  16 H :    0.124365
  17 H :    0.124309
  18 H :    0.125302
  19 H :    0.130674
  20 H :    0.130765
  21 H :    0.121472
  22 H :    0.123211
  23 H :    0.144234
  24 H :    0.239072
  25 H :    0.138815
  26 H :    0.117857
  27 H :    0.117943
  28 H :    0.124483
  29 H :    0.124301
  30 H :    0.125152

  Mayer bond orders larger than 0.100000
B(  0-C ,  1-C ) :   1.1010 B(  0-C , 16-H ) :   0.9405 B(  0-C , 17-H ) :   0.9409
B(  0-C , 18-H ) :   0.9382 B(  1-C ,  2-C ) :   1.0554 B(  1-C ,  9-O ) :   0.9393
B(  1-C , 15-C ) :   1.1020 B(  2-C ,  3-C ) :   1.0701 B(  2-C , 19-H ) :   0.8794
B(  2-C , 20-H ) :   0.8795 B(  3-C ,  4-C ) :   1.3702 B(  3-C ,  8-C ) :   1.3698
B(  4-C ,  5-C ) :   1.3117 B(  4-C , 21-H ) :   0.9852 B(  5-C ,  6-C ) :   1.3077
B(  5-C , 22-H ) :   0.9658 B(  6-C ,  7-C ) :   1.3806 B(  6-C , 23-H ) :   0.9595
B(  7-C ,  8-C ) :   1.3379 B(  7-C , 10-O ) :   1.0429 B(  8-C ,  9-O ) :   1.1422
B( 10-O , 11-C ) :   1.0840 B( 11-C , 12-O ) :   1.9861 B( 11-C , 13-N ) :   1.2326
B( 13-N , 14-C ) :   1.0216 B( 13-N , 24-H ) :   0.8584 B( 14-C , 25-H ) :   0.9373
B( 14-C , 26-H ) :   0.9589 B( 14-C , 27-H ) :   0.9589 B( 15-C , 28-H ) :   0.9405
B( 15-C , 29-H ) :   0.9409 B( 15-C , 30-H ) :   0.9383

Dispersion correction           -0.035215240
FINAL SINGLE POINT ENERGY      -745.174006997063

DIPOLE MOMENT
-------------

Method             : SCF
Type of density    : Electron Density
Multiplicity       :   1
Irrep              :   0
Energy             :  -745.2770069738567145 Eh
Relativity type    :
Basis              : AO
                                X                 Y                 Z
Electronic contribution:     -6.187599608      -8.570651992       0.786054848
Nuclear contribution   :      6.530903153       9.876138289      -0.941686053
                        -----------------------------------------
Total Dipole Moment    :      0.343303545       1.305486297      -0.155631205
                        -----------------------------------------
Magnitude (a.u.)       :      1.358813036
Magnitude (Debye)      :      3.453828258

Rotational constants in cm-1:             0.029772             0.010826             0.008391
Rotational constants in MHz :           892.529531           324.569290           251.545032

                             ****ORCA TERMINATED NORMALLY****
TOTAL RUN TIME: 0 days 0 hours 0 minutes 18 seconds 318 msec
