                         Program Version 6.0.0  -   RELEASE  -
|  1> ! pbe def2-sv(p) def2/J RI DEFGRID1 loosescf d4 GCP(DFT/SV(P)) printgap
|  2> %output
|  3>     printlevel normal
|  4> end
|  5> * xyz 0 1
|  6> C -2.0663500931 0.4288693275 0.3268480496
|  7> C -0.8220905751 0.2966385989 -0.5446734819
|  8> C 0.4201056168 -0.1398865623 0.2595286612
|  9> C 0.9414761929 -1.4932979378 -0.2209869969
| 10> C 1.5281731362 0.9088055455 0.1770189516
| 11> H -2.3028804206 -0.5209106096 0.801447685
| 12> H -2.9213107105 0.7348265871 -0.2719841958
| 13> H -1.9096360583 1.1726490504 1.1050084913
| 14> H -1.0205300514 -0.429088991 -1.3353965477
| 15> H -0.6274656998 1.2553287509 -1.0287404722
| 16> H 0.1329300256 -0.2439233445 1.3115595668
| 17> H 0.1651791924 -2.251226601 -0.1446430752
| 18> H 1.7905933439 -1.8112447328 0.3802636257
| 19> H 1.2618776488 -1.4288962788 -1.2589261855
| 20> H 1.1730117938 1.8695930117 0.5426325818
| 21> H 1.85880527 1.0305947652 -0.852497183
| 22> H 2.3837636081 0.6088445968 0.7782652022
| 23> *
| 24>
| 25>                          ****END OF INPUT****

CARTESIAN COORDINATES (ANGSTROEM)
---------------------------------
  C     -2.066350    0.428869    0.326848
  C     -0.822091    0.296639   -0.544673
  C      0.420106   -0.139887    0.259529
  C      0.941476   -1.493298   -0.220987
  C      1.528173    0.908806    0.177019
  H     -2.302880   -0.520911    0.801448
  H     -2.921311    0.734827   -0.271984
  H     -1.909636    1.172649    1.105008
  H     -1.020530   -0.429089   -1.335397
  H     -0.627466    1.255329   -1.028740
  H      0.132930   -0.243923    1.311560
  H      0.165179   -2.251227   -0.144643
  H      1.790593   -1.811245    0.380264
  H      1.261878   -1.428896   -1.258926
  H      1.173012    1.869593    0.542633
  H      1.858805    1.030595   -0.852497
  H      2.383764    0.608845    0.778265

 Total Charge           Charge          ....    0
 Multiplicity           Mult            ....    1
 Number of Electrons    NEL             ....   42
 Basis Dimension        Dim             ....   94

ORBITAL ENERGIES
----------------

  NO   OCC          E(Eh)            E(eV)
   0   2.0000      -9.888780      -269.0874
   1   2.0000      -9.876826      -268.7621
   2   2.0000      -9.870473      -268.5892
   3   2.0000      -9.868509      -268.5358
   4   2.0000      -9.868469      -268.5347
   5   2.0000      -0.727302       -19.7909
   6   2.0000      -0.656038       -17.8517
   7   2.0000      -0.606615       -16.5068
   8   2.0000      -0.549225       -14.9452
   9   2.0000      -0.495320       -13.4783
  10   2.0000      -0.402397       -10.9498
  11   2.0000      -0.400475       -10.8975
  12   2.0000      -0.390893       -10.6367
  13   2.0000      -0.353160        -9.6100
  14   2.0000      -0.345353        -9.3975
  15   2.0000      -0.336277        -9.1506
  16   2.0000      -0.315713        -8.5910
  17   2.0000      -0.300749        -8.1838
  18   2.0000      -0.275931        -7.5085
  19   2.0000      -0.273666        -7.4468
  20   2.0000      -0.269854        -7.3431
  21   0.0000       0.036326         0.9885
  22   0.0000       0.064560         1.7568
  23   0.0000       0.075983         2.0676
  24   0.0000       0.078941         2.1481
  25   0.0000       0.104006         2.8301

MULLIKEN ATOMIC CHARGES
-----------------------
   0 C :   -0.295229
   1 C :   -0.142534
   2 C :   -0.170709
   3 C :   -0.257281
   4 C :   -0.257556
   5 H :    0.102647
   6 H :    0.099886
   7 H :    0.103001
   8 H :    0.080420
   9 H :    0.080236
  10 H :    0.073971
  11 H :    0.099919
  12 H :    0.095089
  13 H :    0.096554
  14 H :    0.100089
  15 H :    0.096535
  16 H :    0.094962
Sum of atomic charges:    0.0000000

LOEWDIN ATOMIC CHARGES
----------------------
   0 C :   -0.339200
   1 C :   -0.225343
   2 C :   -0.157713
   3 C :   -0.329740
   4 C :   -0.329804
   5 H :    0.115920
   6 H :    0.116839
   7 H :    0.116012
   8 H :    0.114571
   9 H :    0.114473
  10 H :    0.112310
  11 H :    0.115558
  12 H :    0.114889
  13 H :    0.115379
  14 H :    0.115567
  15 H :    0.115403
  16 H :    0.114879

  Mayer bond orders larger than 0.100000
B(  0-C ,  1-C ) :   1.1573 B(  0-C ,  5-H ) :   0.9546 B(  0-C ,  6-H ) :   0.9512
B(  0-C ,  7-H ) :   0.9547 B(  1-C ,  2-C ) :   1.0338 B(  1-C ,  8-H ) :   0.9300
B(  1-C ,  9-H ) :   0.9303 B(  2-C ,  3-C ) :   1.1203 B(  2-C ,  4-C ) :   1.1205
B(  2-C , 10-H ) :   0.9176 B(  3-C , 11-H ) :   0.9502 B(  3-C , 12-H ) :   0.9519
B(  3-C , 13-H ) :   0.9487 B(  4-C , 14-H ) :   0.9501 B(  4-C , 15-H ) :   0.9488
B(  4-C , 16-H ) :   0.9519

Dispersion correction           -0.011407812
FINAL SINGLE POINT ENERGY      -197.232970145861

DIPOLE MOMENT
-------------

Method             : SCF
Type of density    : Electron Density
Multiplicity       :   1
Irrep              :   0
Energy             :  -197.2907034248017055 Eh
Relativity type    :
Basis              : AO
                                X                 Y                 Z
Electronic contribution:     -0.005851578       0.015941786      -0.011570827
Nuclear contribution   :     -0.014693529      -0.012621824       0.025320485
                        -----------------------------------------
Total Dipole Moment    :     -0.020545107       0.003319962       0.013749658
                        -----------------------------------------
Magnitude (a.u.)       :      0.024943470
Magnitude (Debye)      :      0.063401262

Rotational constants in cm-1:             0.233777             0.109181             0.086210
Rotational constants in MHz :          7008.450678          3273.166081          2584.518984

                             ****ORCA TERMINATED NORMALLY****
TOTAL RUN TIME: 0 days 0 hours 0 minutes 6 seconds 335 msec
