                         Program Version 6.0.0  -   RELEASE  -
|  1> ! pbe def2-sv(p) def2/J RI DEFGRID1 loosescf d4 GCP(DFT/SV(P)) printgap
|  2> %output
|  3>     printlevel normal
|  4> end
|  5> * xyz 0 1
|  6> C 2.1855665103 1.0365069796 -0.4085562668
|  7> C 1.1659096245 -0.0804270026 -0.2458254825
|  8> C 1.610966213 -1.1306737448 0.7653229264
|  9> O -0.0599358922 0.5377391769 0.2089566928
| 10> C -1.2166724929 -0.036335427 -0.0852677011
| 11> O -1.3166655551 -1.0624143002 -0.7283408476
| 12> C -2.3721184417 0.7422098722 0.4715249834
| 13> H 3.1200806283 0.624376469 -0.7745525916
| 14> H 1.8219859419 1.7776426862 -1.1147975004
| 15> H 2.3552104669 1.5192768457 0.54957368
| 16> H 0.9531487772 -0.5625065069 -1.2089998915
| 17> H 1.7644521471 -0.6684945978 1.736900308
| 18> H 2.5381925878 -1.585980029 0.4330688746
| 19> H 0.8525177768 -1.9054056787 0.8556135267
| 20> H -3.3044353684 0.310519771 0.1232195063
| 21> H -2.2897650115 1.7801471754 0.1625314365
| 22> H -2.3288300818 0.7079186078 1.5571014977
| 23> *
| 24>
| 25>                          ****END OF INPUT****

CARTESIAN COORDINATES (ANGSTROEM)
---------------------------------
  C      2.185567    1.036507   -0.408556
  C      1.165910   -0.080427   -0.245825
  C      1.610966   -1.130674    0.765323
  O     -0.059936    0.537739    0.208957
  C     -1.216672   -0.036335   -0.085268
  O     -1.316666   -1.062414   -0.728341
  C     -2.372118    0.742210    0.471525
  H      3.120081    0.624376   -0.774553
  H      1.821986    1.777643   -1.114798
  H      2.355210    1.519277    0.549574
  H      0.953149   -0.562507   -1.209000
  H      1.764452   -0.668495    1.736900
  H      2.538193   -1.585980    0.433069
  H      0.852518   -1.905406    0.855614
  H     -3.304435    0.310520    0.123220
  H     -2.289765    1.780147    0.162531
  H     -2.328830    0.707919    1.557101

 Total Charge           Charge          ....    0
 Multiplicity           Mult            ....    1
 Number of Electrons    NEL             ....   56
 Basis Dimension        Dim             ....  118

ORBITAL ENERGIES
----------------

  NO   OCC          E(Eh)            E(eV)
   0   2.0000     -18.793718      -511.4031
   1   2.0000     -18.728583      -509.6306
   2   2.0000     -10.006641      -272.2945
   3   2.0000      -9.952439      -270.8196
   4   2.0000      -9.892332      -269.1840
   5   2.0000      -9.885673      -269.0028
   6   2.0000      -9.883141      -268.9339
   7   2.0000      -1.001933       -27.2640
   8   2.0000      -0.905828       -24.6488
   9   2.0000      -0.728045       -19.8111
  10   2.0000      -0.667558       -18.1652
  11   2.0000      -0.626317       -17.0429
  12   2.0000      -0.567881       -15.4528
  13   2.0000      -0.493969       -13.4416
  14   2.0000      -0.436817       -11.8864
  15   2.0000      -0.428847       -11.6695
  16   2.0000      -0.411368       -11.1939
  17   2.0000      -0.395450       -10.7607
  18   2.0000      -0.376753       -10.2520
  19   2.0000      -0.370864       -10.0917
  20   2.0000      -0.353489        -9.6189
  21   2.0000      -0.350656        -9.5418
  22   2.0000      -0.337517        -9.1843
  23   2.0000      -0.319982        -8.7071
  24   2.0000      -0.311220        -8.4687
  25   2.0000      -0.286464        -7.7951
  26   2.0000      -0.253110        -6.8875
  27   2.0000      -0.214417        -5.8346
  28   0.0000      -0.016970        -0.4618
  29   0.0000       0.037541         1.0215
  30   0.0000       0.061295         1.6679
  31   0.0000       0.073647         2.0040
  32   0.0000       0.082687         2.2500

MULLIKEN ATOMIC CHARGES
-----------------------
   0 C :   -0.236203
   1 C :   -0.016980
   2 C :   -0.257454
   3 O :   -0.240576
   4 C :    0.084576
   5 O :   -0.214289
   6 C :   -0.241424
   7 H :    0.106155
   8 H :    0.110642
   9 H :    0.104092
  10 H :    0.095181
  11 H :    0.101482
  12 H :    0.106762
  13 H :    0.122712
  14 H :    0.122475
  15 H :    0.124519
  16 H :    0.128329
Sum of atomic charges:   -0.0000000

LOEWDIN ATOMIC CHARGES
----------------------
   0 C :   -0.338160
   1 C :   -0.045227
   2 C :   -0.343226
   3 O :   -0.067248
   4 C :    0.028948
   5 O :   -0.174402
   6 C :   -0.358692
   7 H :    0.127491
   8 H :    0.124851
   9 H :    0.123535
  10 H :    0.117501
  11 H :    0.121715
  12 H :    0.127730
  13 H :    0.129258
  14 H :    0.138603
  15 H :    0.142075
  16 H :    0.145249

  Mayer bond orders larger than 0.100000
B(  0-C ,  1-C ) :   1.1160 B(  0-C ,  7-H ) :   0.9461 B(  0-C ,  8-H ) :   0.9479
B(  0-C ,  9-H ) :   0.9429 B(  1-C ,  2-C ) :   1.1357 B(  1-C ,  3-O ) :   0.8896
B(  1-C , 10-H ) :   0.8985 B(  2-C , 11-H ) :   0.9421 B(  2-C , 12-H ) :   0.9463
B(  2-C , 13-H ) :   0.9411 B(  3-O ,  4-C ) :   1.1926 B(  4-C ,  5-O ) :   2.0460
B(  4-C ,  6-C ) :   1.0841 B(  6-C , 14-H ) :   0.9424 B(  6-C , 15-H ) :   0.9301
B(  6-C , 16-H ) :   0.9285

Dispersion correction           -0.012277364
FINAL SINGLE POINT ENERGY      -346.249245432046

DIPOLE MOMENT
-------------

Method             : SCF
Type of density    : Electron Density
Multiplicity       :   1
Irrep              :   0
Energy             :  -346.3135151562900091 Eh
Relativity type    :
Basis              : AO
                                X                 Y                 Z
Electronic contribution:     -4.693061620      -1.325532792      -1.809117925
Nuclear contribution   :      5.123146260       1.866205137       2.168527377
                        -----------------------------------------
Total Dipole Moment    :      0.430084639       0.540672345       0.359409452
                        -----------------------------------------
Magnitude (a.u.)       :      0.778764750
Magnitude (Debye)      :      1.979462685

Rotational constants in cm-1:             0.158857             0.055891             0.048985
Rotational constants in MHz :          4762.423353          1675.567931          1468.529344

                             ****ORCA TERMINATED NORMALLY****
TOTAL RUN TIME: 0 days 0 hours 0 minutes 8 seconds 449 msec
