                         Program Version 6.0.0  -   RELEASE  -
|  1> ! r2scan-3c def2/J RI DEFGRID2 scfconv6 printgap
|  2> %output
|  3>     printlevel normal
|  4> end
|  5> * xyz 0 1
|  6> C 1.6546309181 -1.2405624253 0.011072126
|  7> C 0.9508996919 0.0223661752 -0.4734023884
|  8> H 0.9403254487 0.0765375579 -1.5677991405
|  9> C -0.5225398878 -0.0094620911 -0.0313493759
| 10> F -1.1790609332 -1.0853651883 -0.5010137934
| 11> F -0.6574360055 -0.0410297873 1.3075998767
| 12> F -1.2136883586 1.0644219734 -0.4502071386
| 13> O 1.5433135222 1.2093716782 -0.0349655801
| 14> H 1.60052044 -1.3115761987 1.0953417134
| 15> H 2.6953206608 -1.2039176194 -0.2951450983
| 16> H 1.1862858745 -2.1184861896 -0.4236433085
| 17> H 1.7509452532 1.1576801268 0.9117188495
| 18> *
| 19>
| 20>                          ****END OF INPUT****

CARTESIAN COORDINATES (ANGSTROEM)
---------------------------------
  C      1.654631   -1.240562    0.011072
  C      0.950900    0.022366   -0.473402
  H      0.940325    0.076538   -1.567799
  C     -0.522540   -0.009462   -0.031349
  F     -1.179061   -1.085365   -0.501014
  F     -0.657436   -0.041030    1.307600
  F     -1.213688    1.064422   -0.450207
  O      1.543314    1.209372   -0.034966
  H      1.600520   -1.311576    1.095342
  H      2.695321   -1.203918   -0.295145
  H      1.186286   -2.118486   -0.423643
  H      1.750945    1.157680    0.911719

 Total Charge           Charge          ....    0
 Multiplicity           Mult            ....    1
 Number of Electrons    NEL             ....   58
 Basis Dimension        Dim             ....  178

ORBITAL ENERGIES
----------------

  NO   OCC          E(Eh)            E(eV)
   0   2.0000     -24.519824      -667.2183
   1   2.0000     -24.518854      -667.1919
   2   2.0000     -24.512463      -667.0180
   3   2.0000     -18.977528      -516.4048
   4   2.0000     -10.275328      -279.6059
   5   2.0000     -10.122049      -275.4350
   6   2.0000     -10.047096      -273.3954
   7   2.0000      -1.274777       -34.6885
   8   2.0000      -1.186967       -32.2990
   9   2.0000      -1.182087       -32.1662
  10   2.0000      -1.020287       -27.7634
  11   2.0000      -0.764186       -20.7946
  12   2.0000      -0.678630       -18.4664
  13   2.0000      -0.618809       -16.8387
  14   2.0000      -0.557236       -15.1632
  15   2.0000      -0.554383       -15.0855
  16   2.0000      -0.541411       -14.7325
  17   2.0000      -0.464502       -12.6397
  18   2.0000      -0.450656       -12.2630
  19   2.0000      -0.426808       -11.6140
  20   2.0000      -0.423672       -11.5287
  21   2.0000      -0.403112       -10.9692
  22   2.0000      -0.389680       -10.6037
  23   2.0000      -0.385249       -10.4832
  24   2.0000      -0.370701       -10.0873
  25   2.0000      -0.364258        -9.9120
  26   2.0000      -0.357978        -9.7411
  27   2.0000      -0.321474        -8.7477
  28   2.0000      -0.269180        -7.3248
  29   0.0000       0.043066         1.1719
  30   0.0000       0.081944         2.2298
  31   0.0000       0.093699         2.5497
  32   0.0000       0.108157         2.9431
  33   0.0000       0.131135         3.5684

MULLIKEN ATOMIC CHARGES
-----------------------
   0 C :   -0.488241
   1 C :   -0.028862
   2 H :    0.164281
   3 C :    0.566851
   4 F :   -0.215721
   5 F :   -0.225141
   6 F :   -0.199891
   7 O :   -0.386755
   8 H :    0.161817
   9 H :    0.170480
  10 H :    0.168562
  11 H :    0.312619
Sum of atomic charges:    0.0000000

LOEWDIN ATOMIC CHARGES
----------------------
   0 C :   -0.382007
   1 C :    0.071353
   2 H :    0.201422
   3 C :    0.514520
   4 F :   -0.215823
   5 F :   -0.215846
   6 F :   -0.200542
   7 O :   -0.556177
   8 H :    0.165647
   9 H :    0.166462
  10 H :    0.172245
  11 H :    0.278745

  Mayer bond orders larger than 0.100000
B(  0-C ,  1-C ) :   0.9536 B(  0-C ,  8-H ) :   0.9592 B(  0-C ,  9-H ) :   0.9684
B(  0-C , 10-H ) :   0.9605 B(  1-C ,  2-H ) :   0.9333 B(  1-C ,  3-C ) :   0.9614
B(  1-C ,  7-O ) :   0.9773 B(  3-C ,  4-F ) :   1.0049 B(  3-C ,  5-F ) :   1.0146
B(  3-C ,  6-F ) :   1.0323 B(  7-O , 11-H ) :   0.8827

Dispersion correction           -0.002560315
FINAL SINGLE POINT ENERGY      -492.057168973067

DIPOLE MOMENT
-------------

Method             : SCF
Type of density    : Electron Density
Multiplicity       :   1
Irrep              :   0
Energy             :  -492.0664637326283923 Eh
Relativity type    :
Basis              : AO
                                X                 Y                 Z
Electronic contribution:     -9.699826691       2.607191938       0.745782672
Nuclear contribution   :     10.516985493      -3.114254272      -0.592955203
                        -----------------------------------------
Total Dipole Moment    :      0.817158802      -0.507062333       0.152827470
                        -----------------------------------------
Magnitude (a.u.)       :      0.973764321
Magnitude (Debye)      :      2.475112203

Rotational constants in cm-1:             0.117455             0.079644             0.065353
Rotational constants in MHz :          3521.197880          2387.657142          1959.240271

                             ****ORCA TERMINATED NORMALLY****
TOTAL RUN TIME: 0 days 0 hours 0 minutes 19 seconds 518 msec
