                         Program Version 6.0.0  -   RELEASE  -
|  1> ! r2scan-3c def2/J RI DEFGRID2 scfconv6 printgap
|  2> %output
|  3>     printlevel normal
|  4> end
|  5> %cpcm
|  6>     smd true
|  7>     smdsolvent "water"
|  8> end
|  9> * xyz 0 1
| 10> C 1.6546309181 -1.2405624253 0.011072126
| 11> C 0.9508996919 0.0223661752 -0.4734023884
| 12> H 0.9403254487 0.0765375579 -1.5677991405
| 13> C -0.5225398878 -0.0094620911 -0.0313493759
| 14> F -1.1790609332 -1.0853651883 -0.5010137934
| 15> F -0.6574360055 -0.0410297873 1.3075998767
| 16> F -1.2136883586 1.0644219734 -0.4502071386
| 17> O 1.5433135222 1.2093716782 -0.0349655801
| 18> H 1.60052044 -1.3115761987 1.0953417134
| 19> H 2.6953206608 -1.2039176194 -0.2951450983
| 20> H 1.1862858745 -2.1184861896 -0.4236433085
| 21> H 1.7509452532 1.1576801268 0.9117188495
| 22> *
| 23>
| 24>                          ****END OF INPUT****

CARTESIAN COORDINATES (ANGSTROEM)
---------------------------------
  C      1.654631   -1.240562    0.011072
  C      0.950900    0.022366   -0.473402
  H      0.940325    0.076538   -1.567799
  C     -0.522540   -0.009462   -0.031349
  F     -1.179061   -1.085365   -0.501014
  F     -0.657436   -0.041030    1.307600
  F     -1.213688    1.064422   -0.450207
  O      1.543314    1.209372   -0.034966
  H      1.600520   -1.311576    1.095342
  H      2.695321   -1.203918   -0.295145
  H      1.186286   -2.118486   -0.423643
  H      1.750945    1.157680    0.911719

 Total Charge           Charge          ....    0
 Multiplicity           Mult            ....    1
 Number of Electrons    NEL             ....   58
 Basis Dimension        Dim             ....  178

ORBITAL ENERGIES
----------------

  NO   OCC          E(Eh)            E(eV)
   0   2.0000     -24.519576      -667.2116
   1   2.0000     -24.519023      -667.1965
   2   2.0000     -24.517559      -667.1567
   3   2.0000     -18.968500      -516.1591
   4   2.0000     -10.274953      -279.5957
   5   2.0000     -10.108909      -275.0774
   6   2.0000     -10.025232      -272.8004
   7   2.0000      -1.276972       -34.7482
   8   2.0000      -1.187647       -32.3175
   9   2.0000      -1.186510       -32.2866
  10   2.0000      -1.010819       -27.5058
  11   2.0000      -0.751239       -20.4423
  12   2.0000      -0.670614       -18.2483
  13   2.0000      -0.610307       -16.6073
  14   2.0000      -0.558164       -15.1884
  15   2.0000      -0.556179       -15.1344
  16   2.0000      -0.535754       -14.5786
  17   2.0000      -0.450689       -12.2639
  18   2.0000      -0.442771       -12.0484
  19   2.0000      -0.428255       -11.6534
  20   2.0000      -0.424195       -11.5429
  21   2.0000      -0.393817       -10.7163
  22   2.0000      -0.389390       -10.5958
  23   2.0000      -0.384635       -10.4664
  24   2.0000      -0.370170       -10.0728
  25   2.0000      -0.349471        -9.5096
  26   2.0000      -0.347913        -9.4672
  27   2.0000      -0.311403        -8.4737
  28   2.0000      -0.263750        -7.1770
  29   0.0000       0.060325         1.6415
  30   0.0000       0.093645         2.5482
  31   0.0000       0.108697         2.9578
  32   0.0000       0.126080         3.4308
  33   0.0000       0.143587         3.9072

MULLIKEN ATOMIC CHARGES
-----------------------
   0 C :   -0.522387
   1 C :   -0.006481
   2 H :    0.194198
   3 C :    0.546073
   4 F :   -0.220362
   5 F :   -0.225709
   6 F :   -0.214413
   7 O :   -0.458241
   8 H :    0.180672
   9 H :    0.181859
  10 H :    0.180686
  11 H :    0.364105
Sum of atomic charges:    0.0000000

LOEWDIN ATOMIC CHARGES
----------------------
   0 C :   -0.381189
   1 C :    0.073912
   2 H :    0.211624
   3 C :    0.512635
   4 F :   -0.219226
   5 F :   -0.218245
   6 F :   -0.213070
   7 O :   -0.583390
   8 H :    0.172019
   9 H :    0.172174
  10 H :    0.175750
  11 H :    0.297005

  Mayer bond orders larger than 0.100000
B(  0-C ,  1-C ) :   0.9374 B(  0-C ,  8-H ) :   0.9582 B(  0-C ,  9-H ) :   0.9609
B(  0-C , 10-H ) :   0.9579 B(  1-C ,  2-H ) :   0.9245 B(  1-C ,  3-C ) :   0.9669
B(  1-C ,  7-O ) :   0.9646 B(  3-C ,  4-F ) :   1.0086 B(  3-C ,  5-F ) :   1.0200
B(  3-C ,  6-F ) :   1.0195 B(  7-O , 11-H ) :   0.8559

Dispersion correction           -0.002560315
FINAL SINGLE POINT ENERGY      -492.063870050761

DIPOLE MOMENT
-------------

Method             : SCF
Type of density    : Electron Density
Multiplicity       :   1
Irrep              :   0
Energy             :  -492.0731648103226803 Eh
Relativity type    :
Basis              : AO
                                X                 Y                 Z
Electronic contribution:     -9.516420013       2.428041400       0.824136560
Nuclear contribution   :     10.516985493      -3.114254272      -0.592955203
                        -----------------------------------------
Total Dipole Moment    :      1.000565480      -0.686212872       0.231181358
                        -----------------------------------------
Magnitude (a.u.)       :      1.235096840
Magnitude (Debye)      :      3.139366679

Rotational constants in cm-1:             0.117455             0.079644             0.065353
Rotational constants in MHz :          3521.197880          2387.657142          1959.240271

                             ****ORCA TERMINATED NORMALLY****
TOTAL RUN TIME: 0 days 0 hours 0 minutes 23 seconds 869 msec
