                         Program Version 6.0.0  -   RELEASE  -
|  1> ! wb97x-v def2-tzvp def2/J RIJCOSX DEFGRID2 scfconv7 GCP(DFT/TZ) printgap
|  2> %output
|  3>     printlevel normal
|  4> end
|  5> * xyz 0 1
|  6> C -2.5122326353036892 0.21611963359629924 0.014845990449511876
|  7> O -1.0655360156757463 0.38202615088335495 0.009476535541086078
|  8> C -0.3615737730149396 -0.7432143457557245 -0.018191585423290572
|  9> O -0.838619504945732 -1.8643807229913139 -0.03833122356538352
| 10> C 1.1367521444348307 -0.5760814934686493 -0.02874978905164236
| 11> Cl 1.752123928722623 1.1261838349766273 0.028803467434156873
| 12> H -2.830109086481231 -0.28584798646493326 -0.9012438452769368
| 13> H -2.912954823751488 1.227279070026868 0.059354274966890205
| 14> H -2.816722552080855 -0.3594714064608986 0.8912055789633013
| 15> H 1.5211101360972679 -1.0396577400749198 -0.9403910240053449
| 16> H 1.5423132172473168 -1.1080848610359912 0.8347919192473242
| 17> *
| 18>
| 19>                          ****END OF INPUT****

CARTESIAN COORDINATES (ANGSTROEM)
---------------------------------
  C     -2.512233    0.216120    0.014846
  O     -1.065536    0.382026    0.009477
  C     -0.361574   -0.743214   -0.018192
  O     -0.838620   -1.864381   -0.038331
  C      1.136752   -0.576081   -0.028750
  Cl     1.752124    1.126184    0.028803
  H     -2.830109   -0.285848   -0.901244
  H     -2.912955    1.227279    0.059354
  H     -2.816723   -0.359471    0.891206
  H      1.521110   -1.039658   -0.940391
  H      1.542313   -1.108085    0.834792

 Total Charge           Charge          ....    0
 Multiplicity           Mult            ....    1
 Number of Electrons    NEL             ....   56
 Basis Dimension        Dim             ....  222

ORBITAL ENERGIES
----------------

  NO   OCC          E(Eh)            E(eV)
   0   2.0000    -107.140515     -2915.4416
   1   2.0000     -21.737905      -591.5185
   2   2.0000     -21.671319      -589.7066
   3   2.0000     -12.197693      -331.9161
   4   2.0000     -12.131516      -330.1153
   5   2.0000     -12.115573      -329.6815
   6   2.0000     -11.293532      -307.3126
   7   2.0000      -9.085045      -247.2167
   8   2.0000      -9.082226      -247.1399
   9   2.0000      -9.082199      -247.1392
  10   2.0000      -1.780370       -48.4463
  11   2.0000      -1.710895       -46.5558
  12   2.0000      -1.409220       -38.3468
  13   2.0000      -1.309354       -35.6293
  14   2.0000      -1.231085       -33.4995
  15   2.0000      -1.135744       -30.9052
  16   2.0000      -1.076676       -29.2978
  17   2.0000      -1.030674       -28.0461
  18   2.0000      -1.015630       -27.6367
  19   2.0000      -0.958877       -26.0924
  20   2.0000      -0.927733       -25.2449
  21   2.0000      -0.892020       -24.2731
  22   2.0000      -0.887633       -24.1537
  23   2.0000      -0.876636       -23.8545
  24   2.0000      -0.855299       -23.2739
  25   2.0000      -0.839202       -22.8359
  26   2.0000      -0.782863       -21.3028
  27   2.0000      -0.775812       -21.1109
  28   0.0000      -0.320912        -8.7324
  29   0.0000      -0.283631        -7.7180
  30   0.0000      -0.198066        -5.3896
  31   0.0000      -0.117848        -3.2068
  32   0.0000      -0.027218        -0.7406

MULLIKEN ATOMIC CHARGES
-----------------------
   0 C :   -0.188263
   1 O :   -0.217286
   2 C :    0.287255
   3 O :   -0.355854
   4 C :   -0.114019
   5 Cl:   -0.126985
   6 H :    0.135014
   7 H :    0.137115
   8 H :    0.136050
   9 H :    0.153174
  10 H :    0.153800
Sum of atomic charges:   -0.0000000

LOEWDIN ATOMIC CHARGES
----------------------
   0 C :   -0.271924
   1 O :    0.244295
   2 C :   -0.518615
   3 O :    0.090575
   4 C :   -0.429876
   5 Cl:    0.261381
   6 H :    0.113448
   7 H :    0.113056
   8 H :    0.113686
   9 H :    0.142047
  10 H :    0.141928

  Mayer bond orders larger than 0.100000
B(  0-C ,  1-O ) :   0.8948 B(  0-C ,  6-H ) :   0.9768 B(  0-C ,  7-H ) :   0.9699
B(  0-C ,  8-H ) :   0.9764 B(  1-O ,  2-C ) :   1.2408 B(  2-C ,  3-O ) :   2.0042
B(  2-C ,  4-C ) :   0.9820 B(  4-C ,  5-Cl) :   1.0947 B(  4-C ,  9-H ) :   0.9585
B(  4-C , 10-H ) :   0.9599

FINAL SINGLE POINT ENERGY      -727.943154301692

DIPOLE MOMENT
-------------

Method             : SCF
Type of density    : Electron Density
Multiplicity       :   1
Irrep              :   0
Energy             :  -727.9504918570918335 Eh
Relativity type    :
Basis              : AO
                                X                 Y                 Z
Electronic contribution:      7.290579016       3.193559315       0.089725399
Nuclear contribution   :     -7.699841342      -3.045491536      -0.095541641
                        -----------------------------------------
Total Dipole Moment    :     -0.409262326       0.148067778      -0.005816242
                        -----------------------------------------
Magnitude (a.u.)       :      0.435262618
Magnitude (Debye)      :      1.106349653

Rotational constants in cm-1:             0.184845             0.057399             0.044543
Rotational constants in MHz :          5541.525283          1720.792979          1335.374043

                             ****ORCA TERMINATED NORMALLY****
TOTAL RUN TIME: 0 days 0 hours 1 minutes 16 seconds 70 msec
