                         Program Version 6.0.0  -   RELEASE  -
|  1> ! wb97x-v def2-tzvp def2/J RIJCOSX DEFGRID2 scfconv7 GCP(DFT/TZ) printgap
|  2> %output
|  3>     printlevel normal
|  4> end
|  5> %cpcm
|  6>     smd true
|  7>     smdsolvent "water"
|  8> end
|  9> * xyz 0 1
| 10> C -2.5122326353036892 0.21611963359629924 0.014845990449511876
| 11> O -1.0655360156757463 0.38202615088335495 0.009476535541086078
| 12> C -0.3615737730149396 -0.7432143457557245 -0.018191585423290572
| 13> O -0.838619504945732 -1.8643807229913139 -0.03833122356538352
| 14> C 1.1367521444348307 -0.5760814934686493 -0.02874978905164236
| 15> Cl 1.752123928722623 1.1261838349766273 0.028803467434156873
| 16> H -2.830109086481231 -0.28584798646493326 -0.9012438452769368
| 17> H -2.912954823751488 1.227279070026868 0.059354274966890205
| 18> H -2.816722552080855 -0.3594714064608986 0.8912055789633013
| 19> H 1.5211101360972679 -1.0396577400749198 -0.9403910240053449
| 20> H 1.5423132172473168 -1.1080848610359912 0.8347919192473242
| 21> *
| 22>
| 23>                          ****END OF INPUT****

CARTESIAN COORDINATES (ANGSTROEM)
---------------------------------
  C     -2.512233    0.216120    0.014846
  O     -1.065536    0.382026    0.009477
  C     -0.361574   -0.743214   -0.018192
  O     -0.838620   -1.864381   -0.038331
  C      1.136752   -0.576081   -0.028750
  Cl     1.752124    1.126184    0.028803
  H     -2.830109   -0.285848   -0.901244
  H     -2.912955    1.227279    0.059354
  H     -2.816723   -0.359471    0.891206
  H      1.521110   -1.039658   -0.940391
  H      1.542313   -1.108085    0.834792

 Total Charge           Charge          ....    0
 Multiplicity           Mult            ....    1
 Number of Electrons    NEL             ....   56
 Basis Dimension        Dim             ....  222

ORBITAL ENERGIES
----------------

  NO   OCC          E(Eh)            E(eV)
   0   2.0000    -107.140862     -2915.4511
   1   2.0000     -21.735533      -591.4539
   2   2.0000     -21.676278      -589.8415
   3   2.0000     -12.200472      -331.9917
   4   2.0000     -12.120250      -329.8088
   5   2.0000     -12.097257      -329.1831
   6   2.0000     -11.293956      -307.3242
   7   2.0000      -9.085434      -247.2272
   8   2.0000      -9.082730      -247.1537
   9   2.0000      -9.082719      -247.1534
  10   2.0000      -1.779508       -48.4229
  11   2.0000      -1.714878       -46.6642
  12   2.0000      -1.407545       -38.3012
  13   2.0000      -1.302852       -35.4524
  14   2.0000      -1.222390       -33.2629
  15   2.0000      -1.133567       -30.8459
  16   2.0000      -1.080153       -29.3925
  17   2.0000      -1.023568       -27.8527
  18   2.0000      -1.011571       -27.5262
  19   2.0000      -0.957404       -26.0523
  20   2.0000      -0.928338       -25.2614
  21   2.0000      -0.885949       -24.1079
  22   2.0000      -0.882624       -24.0174
  23   2.0000      -0.880538       -23.9607
  24   2.0000      -0.838270       -22.8105
  25   2.0000      -0.823140       -22.3988
  26   2.0000      -0.783549       -21.3214
  27   2.0000      -0.774715       -21.0811
  28   0.0000      -0.317623        -8.6430
  29   0.0000      -0.278917        -7.5897
  30   0.0000      -0.184597        -5.0231
  31   0.0000      -0.113121        -3.0782
  32   0.0000      -0.018178        -0.4946

MULLIKEN ATOMIC CHARGES
-----------------------
   0 C :   -0.224357
   1 O :   -0.246471
   2 C :    0.382324
   3 O :   -0.465338
   4 C :   -0.140323
   5 Cl:   -0.165812
   6 H :    0.156738
   7 H :    0.161511
   8 H :    0.156414
   9 H :    0.192684
  10 H :    0.192630
Sum of atomic charges:   -0.0000000

LOEWDIN ATOMIC CHARGES
----------------------
   0 C :   -0.267772
   1 O :    0.237921
   2 C :   -0.496045
   3 O :    0.034298
   4 C :   -0.415722
   5 Cl:    0.238726
   6 H :    0.118906
   7 H :    0.121437
   8 H :    0.118801
   9 H :    0.154896
  10 H :    0.154554

  Mayer bond orders larger than 0.100000
B(  0-C ,  1-O ) :   0.8672 B(  0-C ,  6-H ) :   0.9715 B(  0-C ,  7-H ) :   0.9651
B(  0-C ,  8-H ) :   0.9714 B(  1-O ,  2-C ) :   1.2549 B(  2-C ,  3-O ) :   1.8976
B(  2-C ,  4-C ) :   0.9982 B(  4-C ,  5-Cl) :   1.0511 B(  4-C ,  9-H ) :   0.9443
B(  4-C , 10-H ) :   0.9459

FINAL SINGLE POINT ENERGY      -727.951350847644

DIPOLE MOMENT
-------------

Method             : SCF
Type of density    : Electron Density
Multiplicity       :   1
Irrep              :   0
Energy             :  -727.9586884030442206 Eh
Relativity type    :
Basis              : AO
                                X                 Y                 Z
Electronic contribution:      7.276401173       3.238401229       0.085860903
Nuclear contribution   :     -7.699841342      -3.045491536      -0.095541641
                        -----------------------------------------
Total Dipole Moment    :     -0.423440169       0.192909693      -0.009680738
                        -----------------------------------------
Magnitude (a.u.)       :      0.465413196
Magnitude (Debye)      :      1.182986330

Rotational constants in cm-1:             0.184845             0.057399             0.044543
Rotational constants in MHz :          5541.525283          1720.792979          1335.374043

                             ****ORCA TERMINATED NORMALLY****
TOTAL RUN TIME: 0 days 0 hours 1 minutes 17 seconds 630 msec
