                         Program Version 6.0.0  -   RELEASE  -
|  1> ! pbe def2-sv(p) def2/J RI DEFGRID1 loosescf d4 GCP(DFT/SV(P)) printgap
|  2> %output
|  3>     printlevel normal
|  4> end
|  5> * xyz 0 1
|  6> C 1.5039914031 2.5345938542 1.1552685406
|  7> C 1.7572672657 1.6587142984 -0.0702575865
|  8> C 2.7935688735 0.5448073175 0.2260144028
|  9> C 1.9749196745 -0.7070277415 0.1470571302
| 10> C 2.3108238509 -2.0284605642 0.3390443452
| 11> C 1.3271957101 -2.9977412089 0.1867723291
| 12> C 0.0295183186 -2.6438477901 -0.1371267284
| 13> C -0.3116650456 -1.3118007242 -0.3335795494
| 14> C 0.6734491445 -0.3445362764 -0.1984629214
| 15> O 0.5065469978 0.9821913674 -0.3884953504
| 16> O -1.6197754679 -0.9755641708 -0.692290797
| 17> C -2.2748466165 -0.091170893 0.111935352
| 18> O -1.8662505787 0.2602690654 1.2026724333
| 19> N -3.4196761536 0.2888819313 -0.4599670586
| 20> C -4.3592089667 1.1862876614 0.1728752172
| 21> C 2.1460441944 2.5022520488 -1.2812835046
| 22> H 0.729931083 3.2645327614 0.933453157
| 23> H 1.1595918199 1.917525306 1.9827405573
| 24> H 2.4152833066 3.051341321 1.4403574519
| 25> H 3.5948357997 0.539551275 -0.5141948806
| 26> H 3.2381136918 0.6709681286 1.2130390799
| 27> H 3.3192152015 -2.3040812125 0.6027829008
| 28> H 1.570583971 -4.0377004846 0.331464058
| 29> H -0.7403902255 -3.3907368048 -0.2456823266
| 30> H -3.6384078624 -0.0840893202 -1.3711788819
| 31> H -5.3167454362 0.6879586158 0.3200809962
| 32> H -4.4998603617 2.0755570344 -0.4401875749
| 33> H -3.9465624344 1.4726039628 1.1381390525
| 34> H 3.0669007178 3.0388087498 -1.0748730645
| 35> H 1.3569578323 3.2164022398 -1.5007230859
| 36> H 2.2865244818 1.8640698511 -2.1505403799
| 37> *
| 38>
| 39>                          ****END OF INPUT****

CARTESIAN COORDINATES (ANGSTROEM)
---------------------------------
  C      1.503991    2.534594    1.155269
  C      1.757267    1.658714   -0.070258
  C      2.793569    0.544807    0.226014
  C      1.974920   -0.707028    0.147057
  C      2.310824   -2.028461    0.339044
  C      1.327196   -2.997741    0.186772
  C      0.029518   -2.643848   -0.137127
  C     -0.311665   -1.311801   -0.333580
  C      0.673449   -0.344536   -0.198463
  O      0.506547    0.982191   -0.388495
  O     -1.619775   -0.975564   -0.692291
  C     -2.274847   -0.091171    0.111935
  O     -1.866251    0.260269    1.202672
  N     -3.419676    0.288882   -0.459967
  C     -4.359209    1.186288    0.172875
  C      2.146044    2.502252   -1.281284
  H      0.729931    3.264533    0.933453
  H      1.159592    1.917525    1.982741
  H      2.415283    3.051341    1.440357
  H      3.594836    0.539551   -0.514195
  H      3.238114    0.670968    1.213039
  H      3.319215   -2.304081    0.602783
  H      1.570584   -4.037700    0.331464
  H     -0.740390   -3.390737   -0.245682
  H     -3.638408   -0.084089   -1.371179
  H     -5.316745    0.687959    0.320081
  H     -4.499860    2.075557   -0.440188
  H     -3.946562    1.472604    1.138139
  H      3.066901    3.038809   -1.074873
  H      1.356958    3.216402   -1.500723
  H      2.286524    1.864070   -2.150540

 Total Charge           Charge          ....    0
 Multiplicity           Mult            ....    1
 Number of Electrons    NEL             ....  118
 Basis Dimension        Dim             ....  254

ORBITAL ENERGIES
----------------

  NO   OCC          E(Eh)            E(eV)
   0   2.0000     -18.795579      -511.4537
   1   2.0000     -18.778206      -510.9810
   2   2.0000     -18.706071      -509.0181
   3   2.0000     -14.018251      -381.4560
   4   2.0000     -10.015285      -272.5298
   5   2.0000      -9.959197      -271.0035
   6   2.0000      -9.942781      -270.5568
   7   2.0000      -9.938392      -270.4374
   8   2.0000      -9.919301      -269.9179
   9   2.0000      -9.895843      -269.2796
  10   2.0000      -9.892541      -269.1897
  11   2.0000      -9.886957      -269.0378
  12   2.0000      -9.886315      -269.0203
  13   2.0000      -9.883090      -268.9326
  14   2.0000      -9.880640      -268.8659
  15   2.0000      -9.875563      -268.7277
  16   2.0000      -1.001734       -27.2586
  17   2.0000      -0.968937       -26.3661
  18   2.0000      -0.901922       -24.5425
  19   2.0000      -0.840702       -22.8767
  20   2.0000      -0.769319       -20.9342
  21   2.0000      -0.733079       -19.9481
  22   2.0000      -0.690738       -18.7959
  23   2.0000      -0.671152       -18.2630
  24   2.0000      -0.635892       -17.3035
  25   2.0000      -0.622883       -16.9495
  26   2.0000      -0.613213       -16.6864
  27   2.0000      -0.563453       -15.3323
  28   2.0000      -0.546210       -14.8631
  29   2.0000      -0.526647       -14.3308
  30   2.0000      -0.510137       -13.8815
  31   2.0000      -0.498884       -13.5753
  32   2.0000      -0.449073       -12.2199
  33   2.0000      -0.430383       -11.7113
  34   2.0000      -0.427202       -11.6248
  35   2.0000      -0.426005       -11.5922
  36   2.0000      -0.421083       -11.4582
  37   2.0000      -0.410847       -11.1797
  38   2.0000      -0.390262       -10.6196
  39   2.0000      -0.385459       -10.4889
  40   2.0000      -0.369566       -10.0564
  41   2.0000      -0.368814       -10.0360
  42   2.0000      -0.360732        -9.8160
  43   2.0000      -0.356796        -9.7089
  44   2.0000      -0.354986        -9.6597
  45   2.0000      -0.344012        -9.3610
  46   2.0000      -0.334606        -9.1051
  47   2.0000      -0.332138        -9.0379
  48   2.0000      -0.323874        -8.8131
  49   2.0000      -0.313616        -8.5339
  50   2.0000      -0.308612        -8.3978
  51   2.0000      -0.299574        -8.1518
  52   2.0000      -0.283745        -7.7211
  53   2.0000      -0.272479        -7.4145
  54   2.0000      -0.257151        -6.9974
  55   2.0000      -0.214647        -5.8408
  56   2.0000      -0.212218        -5.7747
  57   2.0000      -0.207194        -5.6380
  58   2.0000      -0.178593        -4.8598
  59   0.0000      -0.028399        -0.7728
  60   0.0000      -0.011628        -0.3164
  61   0.0000       0.031708         0.8628
  62   0.0000       0.035397         0.9632
  63   0.0000       0.040477         1.1014

MULLIKEN ATOMIC CHARGES
-----------------------
   0 C :   -0.190263
   1 C :   -0.087582
   2 C :   -0.002591
   3 C :   -0.034904
   4 C :   -0.156703
   5 C :   -0.048769
   6 C :   -0.134318
   7 C :    0.154389
   8 C :    0.179831
   9 O :   -0.252503
  10 O :   -0.255711
  11 C :    0.193928
  12 O :   -0.237482
  13 N :   -0.278815
  14 C :   -0.172760
  15 C :   -0.201751
  16 H :    0.106534
  17 H :    0.118894
  18 H :    0.097940
  19 H :    0.089104
  20 H :    0.091269
  21 H :    0.028810
  22 H :    0.046858
  23 H :    0.035161
  24 H :    0.231105
  25 H :    0.113026
  26 H :    0.113470
  27 H :    0.139109
  28 H :    0.102713
  29 H :    0.106886
  30 H :    0.105126
Sum of atomic charges:   -0.0000000

LOEWDIN ATOMIC CHARGES
----------------------
   0 C :   -0.326456
   1 C :    0.020790
   2 C :   -0.199123
   3 C :   -0.066870
   4 C :   -0.129311
   5 C :   -0.141261
   6 C :   -0.131616
   7 C :    0.013053
   8 C :    0.025216
   9 O :   -0.069590
  10 O :   -0.066181
  11 C :    0.030504
  12 O :   -0.206553
  13 N :   -0.169302
  14 C :   -0.255876
  15 C :   -0.327601
  16 H :    0.125277
  17 H :    0.131550
  18 H :    0.121732
  19 H :    0.130053
  20 H :    0.132560
  21 H :    0.122609
  22 H :    0.122744
  23 H :    0.130614
  24 H :    0.237082
  25 H :    0.116786
  26 H :    0.117310
  27 H :    0.138702
  28 H :    0.124826
  29 H :    0.124926
  30 H :    0.123407

  Mayer bond orders larger than 0.100000
B(  0-C ,  1-C ) :   1.1012 B(  0-C , 16-H ) :   0.9397 B(  0-C , 17-H ) :   0.9350
B(  0-C , 18-H ) :   0.9392 B(  1-C ,  2-C ) :   1.0577 B(  1-C ,  9-O ) :   0.9408
B(  1-C , 15-C ) :   1.1032 B(  2-C ,  3-C ) :   1.0647 B(  2-C , 19-H ) :   0.8797
B(  2-C , 20-H ) :   0.8777 B(  3-C ,  4-C ) :   1.3847 B(  3-C ,  8-C ) :   1.3433
B(  4-C ,  5-C ) :   1.3109 B(  4-C , 21-H ) :   0.9843 B(  5-C ,  6-C ) :   1.3307
B(  5-C , 22-H ) :   0.9643 B(  6-C ,  7-C ) :   1.4058 B(  6-C , 23-H ) :   0.9730
B(  7-C ,  8-C ) :   1.3337 B(  7-C , 10-O ) :   0.9927 B(  8-C ,  9-O ) :   1.1330
B( 10-O , 11-C ) :   1.0744 B( 11-C , 12-O ) :   2.0151 B( 11-C , 13-N ) :   1.2363
B( 13-N , 14-C ) :   1.0226 B( 13-N , 24-H ) :   0.8595 B( 14-C , 25-H ) :   0.9591
B( 14-C , 26-H ) :   0.9593 B( 14-C , 27-H ) :   0.9374 B( 15-C , 28-H ) :   0.9414
B( 15-C , 29-H ) :   0.9408 B( 15-C , 30-H ) :   0.9384

Dispersion correction           -0.036339486
FINAL SINGLE POINT ENERGY      -745.176849352387

DIPOLE MOMENT
-------------

Method             : SCF
Type of density    : Electron Density
Multiplicity       :   1
Irrep              :   0
Energy             :  -745.2783227637435175 Eh
Relativity type    :
Basis              : AO
                                X                 Y                 Z
Electronic contribution:     -4.350837021     -10.794495268      -1.266258680
Nuclear contribution   :      4.248896853      11.247360041       0.622861752
                        -----------------------------------------
Total Dipole Moment    :     -0.101940168       0.452864772      -0.643396927
                        -----------------------------------------
Magnitude (a.u.)       :      0.793371229
Magnitude (Debye)      :      2.016589402

Rotational constants in cm-1:             0.024272             0.014708             0.010250
Rotational constants in MHz :           727.646621           440.927187           307.285818

                             ****ORCA TERMINATED NORMALLY****
TOTAL RUN TIME: 0 days 0 hours 0 minutes 19 seconds 42 msec
