                         Program Version 6.0.0  -   RELEASE  -
|  1> ! pbe def2-sv(p) def2/J RI DEFGRID1 loosescf d4 GCP(DFT/SV(P)) printgap
|  2> %output
|  3>     printlevel normal
|  4> end
|  5> * xyz 0 1
|  6> C -2.5263620331 -0.6268910295 -0.129177102
|  7> C -1.195646437 -0.4378337451 0.617399389
|  8> H -1.304863174 -0.7666688423 1.6633450711
|  9> C -0.7150100051 1.0302428392 0.6664055878
| 10> H -1.5691304215 1.6865908055 0.4636043306
| 11> C 0.3691013045 1.2887242258 -0.3949385581
| 12> H 0.7769203393 2.2997696303 -0.2548113979
| 13> C 1.5579387021 0.3178187588 -0.166086272
| 14> H 2.0807824324 0.1750958875 -1.1168681648
| 15> C 1.0659010064 -1.0615041381 0.3196596715
| 16> H 1.1361632209 -1.0918713474 1.4275791236
| 17> O -0.2750865078 -1.2864443119 -0.0499661142
| 18> O 1.8403090059 -2.0442609064 -0.2606976552
| 19> O 2.4944106203 0.8670046115 0.7222310637
| 20> O -0.1335537635 1.2534300028 -1.7013826826
| 21> O -0.1964344086 1.2664988296 1.9614337487
| 22> O -2.3598817154 -0.4718430768 -1.5189364969
| 23> H -3.247926031 0.1259366776 0.1901281889
| 24> H -2.919695553 -1.621347543 0.0994421175
| 25> H 1.4762744892 -2.9197071691 -0.0518806005
| 26> H 2.0617872423 1.0039185088 1.581408882
| 27> H -0.9033407166 0.6484458363 -1.7577790103
| 28> H -0.258510179 2.2082537233 2.1741562852
| 29> H -1.8632125537 -1.235181528 -1.8512216313
| 30> *
| 31>
| 32>                          ****END OF INPUT****

CARTESIAN COORDINATES (ANGSTROEM)
---------------------------------
  C     -2.526362   -0.626891   -0.129177
  C     -1.195646   -0.437834    0.617399
  H     -1.304863   -0.766669    1.663345
  C     -0.715010    1.030243    0.666406
  H     -1.569130    1.686591    0.463604
  C      0.369101    1.288724   -0.394939
  H      0.776920    2.299770   -0.254811
  C      1.557939    0.317819   -0.166086
  H      2.080782    0.175096   -1.116868
  C      1.065901   -1.061504    0.319660
  H      1.136163   -1.091871    1.427579
  O     -0.275087   -1.286444   -0.049966
  O      1.840309   -2.044261   -0.260698
  O      2.494411    0.867005    0.722231
  O     -0.133554    1.253430   -1.701383
  O     -0.196434    1.266499    1.961434
  O     -2.359882   -0.471843   -1.518936
  H     -3.247926    0.125937    0.190128
  H     -2.919696   -1.621348    0.099442
  H      1.476274   -2.919707   -0.051881
  H      2.061787    1.003919    1.581409
  H     -0.903341    0.648446   -1.757779
  H     -0.258510    2.208254    2.174156
  H     -1.863213   -1.235182   -1.851222

 Total Charge           Charge          ....    0
 Multiplicity           Mult            ....    1
 Number of Electrons    NEL             ....   96
 Basis Dimension        Dim             ....  192

ORBITAL ENERGIES
----------------

  NO   OCC          E(Eh)            E(eV)
   0   2.0000     -18.783791      -511.1330
   1   2.0000     -18.778915      -511.0002
   2   2.0000     -18.778646      -510.9929
   3   2.0000     -18.758526      -510.4455
   4   2.0000     -18.734557      -509.7932
   5   2.0000     -18.728062      -509.6165
   6   2.0000      -9.983902      -271.6758
   7   2.0000      -9.957482      -270.9568
   8   2.0000      -9.955645      -270.9069
   9   2.0000      -9.955224      -270.8954
  10   2.0000      -9.932049      -270.2648
  11   2.0000      -9.923925      -270.0437
  12   2.0000      -0.990265       -26.9465
  13   2.0000      -0.957042       -26.0424
  14   2.0000      -0.952826       -25.9277
  15   2.0000      -0.918327       -24.9890
  16   2.0000      -0.915057       -24.9000
  17   2.0000      -0.903099       -24.5746
  18   2.0000      -0.710885       -19.3442
  19   2.0000      -0.679475       -18.4895
  20   2.0000      -0.627225       -17.0677
  21   2.0000      -0.591311       -16.0904
  22   2.0000      -0.572574       -15.5805
  23   2.0000      -0.516054       -14.0425
  24   2.0000      -0.509589       -13.8666
  25   2.0000      -0.493986       -13.4421
  26   2.0000      -0.481964       -13.1149
  27   2.0000      -0.472231       -12.8501
  28   2.0000      -0.465994       -12.6803
  29   2.0000      -0.432660       -11.7733
  30   2.0000      -0.410250       -11.1635
  31   2.0000      -0.402875       -10.9628
  32   2.0000      -0.396714       -10.7951
  33   2.0000      -0.372502       -10.1363
  34   2.0000      -0.361281        -9.8310
  35   2.0000      -0.347687        -9.4611
  36   2.0000      -0.336880        -9.1670
  37   2.0000      -0.314363        -8.5543
  38   2.0000      -0.311825        -8.4852
  39   2.0000      -0.296646        -8.0721
  40   2.0000      -0.293618        -7.9898
  41   2.0000      -0.272683        -7.4201
  42   2.0000      -0.252839        -6.8801
  43   2.0000      -0.249847        -6.7987
  44   2.0000      -0.240484        -6.5439
  45   2.0000      -0.232241        -6.3196
  46   2.0000      -0.216462        -5.8902
  47   2.0000      -0.185777        -5.0552
  48   0.0000       0.001530         0.0416
  49   0.0000       0.012455         0.3389
  50   0.0000       0.035160         0.9568
  51   0.0000       0.050906         1.3852
  52   0.0000       0.057152         1.5552

MULLIKEN ATOMIC CHARGES
-----------------------
   0 C :    0.054943
   1 C :    0.027855
   2 H :    0.076177
   3 C :   -0.055205
   4 H :    0.079750
   5 C :    0.074168
   6 H :    0.057063
   7 C :    0.090952
   8 H :    0.079514
   9 C :    0.182959
  10 H :    0.033604
  11 O :   -0.330192
  12 O :   -0.372225
  13 O :   -0.429557
  14 O :   -0.426490
  15 O :   -0.417333
  16 O :   -0.428834
  17 H :    0.102688
  18 H :    0.095858
  19 H :    0.299066
  20 H :    0.287885
  21 H :    0.283891
  22 H :    0.312287
  23 H :    0.321176
Sum of atomic charges:   -0.0000000

LOEWDIN ATOMIC CHARGES
----------------------
   0 C :   -0.122091
   1 C :   -0.073804
   2 H :    0.113341
   3 C :   -0.082038
   4 H :    0.108578
   5 C :   -0.078137
   6 H :    0.107070
   7 C :   -0.080447
   8 H :    0.127930
   9 C :   -0.001161
  10 H :    0.077954
  11 O :   -0.168386
  12 O :   -0.288526
  13 O :   -0.314754
  14 O :   -0.331416
  15 O :   -0.316201
  16 O :   -0.309030
  17 H :    0.120812
  18 H :    0.110942
  19 H :    0.284802
  20 H :    0.267154
  21 H :    0.260223
  22 H :    0.294377
  23 H :    0.292808

  Mayer bond orders larger than 0.100000
B(  0-C ,  1-C ) :   1.0333 B(  0-C , 16-O ) :   1.0396 B(  0-C , 17-H ) :   0.9246
B(  0-C , 18-H ) :   0.9234 B(  1-C ,  2-H ) :   0.8823 B(  1-C ,  3-C ) :   0.9575
B(  1-C , 11-O ) :   1.0095 B(  3-C ,  4-H ) :   0.9033 B(  3-C ,  5-C ) :   1.0068
B(  3-C , 15-O ) :   1.0348 B(  5-C ,  6-H ) :   0.8942 B(  5-C ,  7-C ) :   0.9396
B(  5-C , 14-O ) :   1.1003 B(  7-C ,  8-H ) :   0.8739 B(  7-C ,  9-C ) :   0.9806
B(  7-C , 13-O ) :   1.0316 B(  9-C , 10-H ) :   0.8835 B(  9-C , 11-O ) :   1.0081
B(  9-C , 12-O ) :   1.1786 B( 12-O , 19-H ) :   0.8414 B( 13-O , 20-H ) :   0.8316
B( 14-O , 21-H ) :   0.7800 B( 15-O , 22-H ) :   0.8423 B( 16-O , 21-H ) :   0.1591
B( 16-O , 23-H ) :   0.8228

Dispersion correction           -0.025416231
FINAL SINGLE POINT ENERGY      -685.694602651222

DIPOLE MOMENT
-------------

Method             : SCF
Type of density    : Electron Density
Multiplicity       :   1
Irrep              :   0
Energy             :  -685.8275836334701125 Eh
Relativity type    :
Basis              : AO
                                X                 Y                 Z
Electronic contribution:      2.822719143      -0.958732318      -1.237978605
Nuclear contribution   :     -4.234075446       0.475344280       2.395826919
                        -----------------------------------------
Total Dipole Moment    :     -1.411356303      -0.483388039       1.157848315
                        -----------------------------------------
Magnitude (a.u.)       :      1.888439390
Magnitude (Debye)      :      4.800031464

Rotational constants in cm-1:             0.040887             0.027798             0.023945
Rotational constants in MHz :          1225.765202           833.367166           717.864020

                             ****ORCA TERMINATED NORMALLY****
TOTAL RUN TIME: 0 days 0 hours 0 minutes 12 seconds 22 msec
