                         Program Version 6.0.0  -   RELEASE  -
|  1> ! wb97x-v def2-tzvp def2/J RIJCOSX DEFGRID2 scfconv7 GCP(DFT/TZ) printgap
|  2> %output
|  3>     printlevel normal
|  4> end
|  5> * xyz 0 1
|  6> C -3.3073632675231264 0.25921063861869725 -0.012282856814892456
|  7> C -1.8201688903925246 0.08615390788961354 0.012072095279501444
|  8> C -0.9730241957936587 1.2068529931472365 0.009882146743515901
|  9> C 0.40211742123839733 1.0596102814612993 0.0014863592595882132
| 10> C 0.9686010454896988 -0.22409029435648256 -0.0025911745648823513
| 11> C 0.13134027767941173 -1.346801762536175 0.0020578285025814884
| 12> C -1.2468668324282173 -1.190931416240683 0.010715733608161889
| 13> C 2.413911510814967 -0.42473629094247384 -0.006693436603674808
| 14> O 3.2495458520525595 0.47602834648853193 -0.007519800736689938
| 15> H -3.6100184095094687 1.1632590910027596 0.5228488535774225
| 16> H -3.658182677271449 0.36070423729202 -1.0468696337928511
| 17> H -3.8158463615809026 -0.6039686056727168 0.42422717104913116
| 18> H -1.4107614436708564 2.200977163302238 0.01648382074726476
| 19> H 1.0506386630628013 1.9301353228836426 0.001761557839215198
| 20> H 0.5713189060085064 -2.3406453743198457 0.0025889470635564755
| 21> H -1.891502909600187 -2.064873705757284 0.017993253124720485
| 22> H 2.738859466848051 -1.484102079685979 -0.009400862678927096
| 23> *
| 24>
| 25>                          ****END OF INPUT****

CARTESIAN COORDINATES (ANGSTROEM)
---------------------------------
  C     -3.307363    0.259211   -0.012283
  C     -1.820169    0.086154    0.012072
  C     -0.973024    1.206853    0.009882
  C      0.402117    1.059610    0.001486
  C      0.968601   -0.224090   -0.002591
  C      0.131340   -1.346802    0.002058
  C     -1.246867   -1.190931    0.010716
  C      2.413912   -0.424736   -0.006693
  O      3.249546    0.476028   -0.007520
  H     -3.610018    1.163259    0.522849
  H     -3.658183    0.360704   -1.046870
  H     -3.815846   -0.603969    0.424227
  H     -1.410761    2.200977    0.016484
  H      1.050639    1.930135    0.001762
  H      0.571319   -2.340645    0.002589
  H     -1.891503   -2.064874    0.017993
  H      2.738859   -1.484102   -0.009401

 Total Charge           Charge          ....    0
 Multiplicity           Mult            ....    1
 Number of Electrons    NEL             ....   64
 Basis Dimension        Dim             ....  327

ORBITAL ENERGIES
----------------

  NO   OCC          E(Eh)            E(eV)
   0   2.0000     -21.665694      -589.5535
   1   2.0000     -12.136526      -330.2517
   2   2.0000     -12.082274      -328.7754
   3   2.0000     -12.073935      -328.5485
   4   2.0000     -12.068442      -328.3990
   5   2.0000     -12.065230      -328.3116
   6   2.0000     -12.064143      -328.2820
   7   2.0000     -12.062722      -328.2434
   8   2.0000     -12.057349      -328.0971
   9   2.0000      -1.703333       -46.3500
  10   2.0000      -1.404803       -38.2266
  11   2.0000      -1.324026       -36.0286
  12   2.0000      -1.291173       -35.1346
  13   2.0000      -1.229900       -33.4673
  14   2.0000      -1.155333       -31.4382
  15   2.0000      -1.125113       -30.6159
  16   2.0000      -1.087331       -29.5878
  17   2.0000      -1.019127       -27.7319
  18   2.0000      -0.997695       -27.1487
  19   2.0000      -0.958140       -26.0723
  20   2.0000      -0.945672       -25.7331
  21   2.0000      -0.911511       -24.8035
  22   2.0000      -0.896113       -24.3845
  23   2.0000      -0.890638       -24.2355
  24   2.0000      -0.855403       -23.2767
  25   2.0000      -0.852588       -23.2001
  26   2.0000      -0.842024       -22.9127
  27   2.0000      -0.812055       -22.0972
  28   2.0000      -0.796105       -21.6631
  29   2.0000      -0.779774       -21.2187
  30   2.0000      -0.658061       -17.9068
  31   2.0000      -0.655591       -17.8395
  32   0.0000      -0.348536        -9.4841
  33   0.0000      -0.248802        -6.7703
  34   0.0000      -0.215058        -5.8520
  35   0.0000      -0.076130        -2.0716
  36   0.0000      -0.061677        -1.6783

MULLIKEN ATOMIC CHARGES
-----------------------
   0 C :   -0.362335
   1 C :    0.154096
   2 C :   -0.150195
   3 C :   -0.179215
   4 C :    0.137348
   5 C :   -0.156955
   6 C :   -0.189423
   7 C :    0.081350
   8 O :   -0.311018
   9 H :    0.126352
  10 H :    0.132753
  11 H :    0.123724
  12 H :    0.124288
  13 H :    0.147929
  14 H :    0.126866
  15 H :    0.121459
  16 H :    0.072975
Sum of atomic charges:    0.0000000

LOEWDIN ATOMIC CHARGES
----------------------
   0 C :   -0.247079
   1 C :   -0.148345
   2 C :   -0.107787
   3 C :   -0.067672
   4 C :   -0.168891
   5 C :   -0.089244
   6 C :   -0.113804
   7 C :   -0.241733
   8 O :    0.083474
   9 H :    0.128297
  10 H :    0.133218
  11 H :    0.127165
  12 H :    0.146550
  13 H :    0.155349
  14 H :    0.147977
  15 H :    0.145592
  16 H :    0.116934

  Mayer bond orders larger than 0.100000
B(  0-C ,  1-C ) :   0.9260 B(  0-C ,  9-H ) :   0.9888 B(  0-C , 10-H ) :   0.9588
B(  0-C , 11-H ) :   0.9909 B(  1-C ,  2-C ) :   1.3425 B(  1-C ,  6-C ) :   1.3930
B(  2-C ,  3-C ) :   1.4572 B(  2-C , 12-H ) :   0.9762 B(  3-C ,  4-C ) :   1.3474
B(  3-C , 13-H ) :   0.9595 B(  4-C ,  5-C ) :   1.3543 B(  4-C ,  7-C ) :   0.9102
B(  4-C ,  8-O ) :  -0.1333 B(  4-C , 16-H ) :  -0.1030 B(  5-C ,  6-C ) :   1.4487
B(  5-C , 14-H ) :   0.9610 B(  6-C , 15-H ) :   0.9710 B(  7-C ,  8-O ) :   2.1203
B(  7-C , 16-H ) :   1.0219

FINAL SINGLE POINT ENERGY      -384.906997520850

DIPOLE MOMENT
-------------

Method             : SCF
Type of density    : Electron Density
Multiplicity       :   1
Irrep              :   0
Energy             :  -384.9159790873503653 Eh
Relativity type    :
Basis              : AO
                                X                 Y                 Z
Electronic contribution:      7.886682549       0.223911580       0.048610053
Nuclear contribution   :     -9.399471906      -0.771350163      -0.065169046
                        -----------------------------------------
Total Dipole Moment    :     -1.512789357      -0.547438584      -0.016558993
                        -----------------------------------------
Magnitude (a.u.)       :      1.608879996
Magnitude (Debye)      :      4.089447956

Rotational constants in cm-1:             0.166579             0.032986             0.027675
Rotational constants in MHz :          4993.920589           988.885331           829.688801

                             ****ORCA TERMINATED NORMALLY****
TOTAL RUN TIME: 0 days 0 hours 2 minutes 52 seconds 289 msec
