                         Program Version 6.0.0  -   RELEASE  -
|  1> ! wb97x-v def2-tzvp def2/J RIJCOSX DEFGRID2 scfconv7 GCP(DFT/TZ) printgap
|  2> %output
|  3>     printlevel normal
|  4> end
|  5> %cpcm
|  6>     smd true
|  7>     smdsolvent "water"
|  8> end
|  9> * xyz 0 1
| 10> C -3.3073632675231264 0.25921063861869725 -0.012282856814892456
| 11> C -1.8201688903925246 0.08615390788961354 0.012072095279501444
| 12> C -0.9730241957936587 1.2068529931472365 0.009882146743515901
| 13> C 0.40211742123839733 1.0596102814612993 0.0014863592595882132
| 14> C 0.9686010454896988 -0.22409029435648256 -0.0025911745648823513
| 15> C 0.13134027767941173 -1.346801762536175 0.0020578285025814884
| 16> C -1.2468668324282173 -1.190931416240683 0.010715733608161889
| 17> C 2.413911510814967 -0.42473629094247384 -0.006693436603674808
| 18> O 3.2495458520525595 0.47602834648853193 -0.007519800736689938
| 19> H -3.6100184095094687 1.1632590910027596 0.5228488535774225
| 20> H -3.658182677271449 0.36070423729202 -1.0468696337928511
| 21> H -3.8158463615809026 -0.6039686056727168 0.42422717104913116
| 22> H -1.4107614436708564 2.200977163302238 0.01648382074726476
| 23> H 1.0506386630628013 1.9301353228836426 0.001761557839215198
| 24> H 0.5713189060085064 -2.3406453743198457 0.0025889470635564755
| 25> H -1.891502909600187 -2.064873705757284 0.017993253124720485
| 26> H 2.738859466848051 -1.484102079685979 -0.009400862678927096
| 27> *
| 28>
| 29>                          ****END OF INPUT****

CARTESIAN COORDINATES (ANGSTROEM)
---------------------------------
  C     -3.307363    0.259211   -0.012283
  C     -1.820169    0.086154    0.012072
  C     -0.973024    1.206853    0.009882
  C      0.402117    1.059610    0.001486
  C      0.968601   -0.224090   -0.002591
  C      0.131340   -1.346802    0.002058
  C     -1.246867   -1.190931    0.010716
  C      2.413912   -0.424736   -0.006693
  O      3.249546    0.476028   -0.007520
  H     -3.610018    1.163259    0.522849
  H     -3.658183    0.360704   -1.046870
  H     -3.815846   -0.603969    0.424227
  H     -1.410761    2.200977    0.016484
  H      1.050639    1.930135    0.001762
  H      0.571319   -2.340645    0.002589
  H     -1.891503   -2.064874    0.017993
  H      2.738859   -1.484102   -0.009401

 Total Charge           Charge          ....    0
 Multiplicity           Mult            ....    1
 Number of Electrons    NEL             ....   64
 Basis Dimension        Dim             ....  327

ORBITAL ENERGIES
----------------

  NO   OCC          E(Eh)            E(eV)
   0   2.0000     -21.676058      -589.8355
   1   2.0000     -12.143154      -330.4320
   2   2.0000     -12.073248      -328.5298
   3   2.0000     -12.064461      -328.2907
   4   2.0000     -12.062791      -328.2452
   5   2.0000     -12.059440      -328.1541
   6   2.0000     -12.052544      -327.9664
   7   2.0000     -12.051877      -327.9482
   8   2.0000     -12.037136      -327.5471
   9   2.0000      -1.717573       -46.7375
  10   2.0000      -1.397312       -38.0228
  11   2.0000      -1.315831       -35.8056
  12   2.0000      -1.282557       -34.9001
  13   2.0000      -1.219593       -33.1868
  14   2.0000      -1.152122       -31.3508
  15   2.0000      -1.116303       -30.3762
  16   2.0000      -1.086318       -29.5602
  17   2.0000      -1.020964       -27.7818
  18   2.0000      -1.000005       -27.2115
  19   2.0000      -0.954576       -25.9753
  20   2.0000      -0.934912       -25.4402
  21   2.0000      -0.914790       -24.8927
  22   2.0000      -0.900515       -24.5043
  23   2.0000      -0.879846       -23.9418
  24   2.0000      -0.844001       -22.9664
  25   2.0000      -0.835243       -22.7281
  26   2.0000      -0.825124       -22.4528
  27   2.0000      -0.803038       -21.8518
  28   2.0000      -0.795541       -21.6478
  29   2.0000      -0.772701       -21.0263
  30   2.0000      -0.651390       -17.7252
  31   2.0000      -0.647934       -17.6312
  32   0.0000      -0.346051        -9.4165
  33   0.0000      -0.240226        -6.5369
  34   0.0000      -0.209374        -5.6974
  35   0.0000      -0.068146        -1.8543
  36   0.0000      -0.051412        -1.3990

MULLIKEN ATOMIC CHARGES
-----------------------
   0 C :   -0.391283
   1 C :    0.144066
   2 C :   -0.205803
   3 C :   -0.203381
   4 C :    0.116119
   5 C :   -0.177694
   6 C :   -0.223010
   7 C :    0.147965
   8 O :   -0.441198
   9 H :    0.147061
  10 H :    0.149186
  11 H :    0.146472
  12 H :    0.164595
  13 H :    0.161037
  14 H :    0.171964
  15 H :    0.164107
  16 H :    0.129795
Sum of atomic charges:    0.0000000

LOEWDIN ATOMIC CHARGES
----------------------
   0 C :   -0.245704
   1 C :   -0.145422
   2 C :   -0.110110
   3 C :   -0.079633
   4 C :   -0.180133
   5 C :   -0.082409
   6 C :   -0.113345
   7 C :   -0.220477
   8 O :    0.003526
   9 H :    0.133665
  10 H :    0.138833
  11 H :    0.132911
  12 H :    0.156914
  13 H :    0.157037
  14 H :    0.161401
  15 H :    0.156704
  16 H :    0.136241

  Mayer bond orders larger than 0.100000
B(  0-C ,  1-C ) :   0.9411 B(  0-C ,  9-H ) :   0.9817 B(  0-C , 10-H ) :   0.9525
B(  0-C , 11-H ) :   0.9841 B(  1-C ,  2-C ) :   1.3254 B(  1-C ,  6-C ) :   1.3667
B(  2-C ,  3-C ) :   1.4745 B(  2-C , 12-H ) :   0.9801 B(  3-C ,  4-C ) :   1.2768
B(  3-C , 13-H ) :   0.9692 B(  4-C ,  5-C ) :   1.3393 B(  4-C ,  7-C ) :   0.9640
B(  4-C ,  8-O ) :  -0.1255 B(  5-C ,  6-C ) :   1.4287 B(  5-C , 14-H ) :   0.9687
B(  6-C , 15-H ) :   0.9780 B(  7-C ,  8-O ) :   1.9908 B(  7-C , 16-H ) :   1.0002

FINAL SINGLE POINT ENERGY      -384.914570808208

DIPOLE MOMENT
-------------

Method             : SCF
Type of density    : Electron Density
Multiplicity       :   1
Irrep              :   0
Energy             :  -384.9235523747075263 Eh
Relativity type    :
Basis              : AO
                                X                 Y                 Z
Electronic contribution:      7.275305518      -0.139959451       0.042091601
Nuclear contribution   :     -9.399471906      -0.771350163      -0.065169046
                        -----------------------------------------
Total Dipole Moment    :     -2.124166388      -0.911309614      -0.023077445
                        -----------------------------------------
Magnitude (a.u.)       :      2.311514790
Magnitude (Debye)      :      5.875403671

Rotational constants in cm-1:             0.166579             0.032986             0.027675
Rotational constants in MHz :          4993.920589           988.885331           829.688801

                             ****ORCA TERMINATED NORMALLY****
TOTAL RUN TIME: 0 days 0 hours 2 minutes 57 seconds 615 msec
