                         Program Version 6.0.0  -   RELEASE  -
|  1> ! r2scan-3c def2/J RI DEFGRID2 scfconv6 printgap
|  2> %output
|  3>     printlevel normal
|  4> end
|  5> * xyz 0 1
|  6> C -3.4243376939 0.5776696194 0.0775181527
|  7> C -1.9294418504 0.4900651852 0.0825687988
|  8> C -1.1397617673 1.4980802743 -0.2601873388
|  9> C 0.3551836116 1.4409665824 -0.2879076155
| 10> C 0.85601927 -0.0078533399 -0.2680317247
| 11> H 0.5698085266 -0.4694099706 -1.2198750653
| 12> C 0.1153371134 -0.7539235638 0.8430707136
| 13> C -1.3678070693 -0.8579020269 0.4776507966
| 14> H -1.9311249016 -1.229303058 1.3513824366
| 15> O -1.5891046526 -1.7423113553 -0.6153279846
| 16> C 2.3567896814 -0.0700820272 -0.1354507425
| 17> C 3.1205728287 -0.354836235 -1.1792875292
| 18> C 2.9421076321 0.2120948636 1.2151292855
| 19> H -3.8299255696 -0.2163548788 -0.5477762066
| 20> H -3.7570638599 1.5383905554 -0.3045364713
| 21> H -3.8142541296 0.4426285461 1.0860003069
| 22> H -1.577441883 2.4496046979 -0.5319437012
| 23> H 0.7249169683 1.9485534647 -1.1818096787
| 24> H 0.7442128818 1.9867028454 0.5776427052
| 25> H 0.5328364969 -1.7551271314 0.9717245882
| 26> H 0.202389363 -0.2149533165 1.7867368645
| 27> H -1.2606489288 -2.620308767 -0.3805626225
| 28> H 4.1950703226 -0.384949256 -1.1091979628
| 29> H 2.7028343419 -0.56861326 -2.1489377727
| 30> H 2.5421091329 1.1364030848 1.6262208252
| 31> H 2.6990032483 -0.5929967303 1.9066650914
| 32> H 4.0234736696 0.2966001646 1.1520886658
| 33> *
| 34>
| 35>                          ****END OF INPUT****

CARTESIAN COORDINATES (ANGSTROEM)
---------------------------------
  C     -3.424338    0.577670    0.077518
  C     -1.929442    0.490065    0.082569
  C     -1.139762    1.498080   -0.260187
  C      0.355184    1.440967   -0.287908
  C      0.856019   -0.007853   -0.268032
  H      0.569809   -0.469410   -1.219875
  C      0.115337   -0.753924    0.843071
  C     -1.367807   -0.857902    0.477651
  H     -1.931125   -1.229303    1.351382
  O     -1.589105   -1.742311   -0.615328
  C      2.356790   -0.070082   -0.135451
  C      3.120573   -0.354836   -1.179288
  C      2.942108    0.212095    1.215129
  H     -3.829926   -0.216355   -0.547776
  H     -3.757064    1.538391   -0.304536
  H     -3.814254    0.442629    1.086000
  H     -1.577442    2.449605   -0.531944
  H      0.724917    1.948553   -1.181810
  H      0.744213    1.986703    0.577643
  H      0.532836   -1.755127    0.971725
  H      0.202389   -0.214953    1.786737
  H     -1.260649   -2.620309   -0.380563
  H      4.195070   -0.384949   -1.109198
  H      2.702834   -0.568613   -2.148938
  H      2.542109    1.136403    1.626221
  H      2.699003   -0.592997    1.906665
  H      4.023474    0.296600    1.152089

 Total Charge           Charge          ....    0
 Multiplicity           Mult            ....    1
 Number of Electrons    NEL             ....   84
 Basis Dimension        Dim             ....  294

ORBITAL ENERGIES
----------------

  NO   OCC          E(Eh)            E(eV)
   0   2.0000     -18.948428      -515.6129
   1   2.0000     -10.084166      -274.4041
   2   2.0000     -10.036582      -273.1093
   3   2.0000     -10.033643      -273.0293
   4   2.0000     -10.030358      -272.9399
   5   2.0000     -10.030224      -272.9363
   6   2.0000     -10.029305      -272.9113
   7   2.0000     -10.024319      -272.7756
   8   2.0000     -10.023324      -272.7485
   9   2.0000     -10.018066      -272.6054
  10   2.0000     -10.009042      -272.3599
  11   2.0000      -0.986129       -26.8339
  12   2.0000      -0.812530       -22.1101
  13   2.0000      -0.770158       -20.9571
  14   2.0000      -0.720242       -19.5988
  15   2.0000      -0.703889       -19.1538
  16   2.0000      -0.655250       -17.8303
  17   2.0000      -0.641723       -17.4622
  18   2.0000      -0.590679       -16.0732
  19   2.0000      -0.570094       -15.5131
  20   2.0000      -0.500056       -13.6072
  21   2.0000      -0.486128       -13.2282
  22   2.0000      -0.464077       -12.6282
  23   2.0000      -0.446667       -12.1544
  24   2.0000      -0.421945       -11.4817
  25   2.0000      -0.414363       -11.2754
  26   2.0000      -0.403035       -10.9672
  27   2.0000      -0.389877       -10.6091
  28   2.0000      -0.383954       -10.4479
  29   2.0000      -0.378694       -10.3048
  30   2.0000      -0.370712       -10.0876
  31   2.0000      -0.367843       -10.0095
  32   2.0000      -0.338831        -9.2201
  33   2.0000      -0.337397        -9.1810
  34   2.0000      -0.329901        -8.9771
  35   2.0000      -0.310827        -8.4580
  36   2.0000      -0.298385        -8.1195
  37   2.0000      -0.295048        -8.0287
  38   2.0000      -0.271313        -7.3828
  39   2.0000      -0.238201        -6.4818
  40   2.0000      -0.223890        -6.0923
  41   2.0000      -0.216092        -5.8802
  42   0.0000      -0.011494        -0.3128
  43   0.0000      -0.002684        -0.0730
  44   0.0000       0.061491         1.6732
  45   0.0000       0.088131         2.3982
  46   0.0000       0.096504         2.6260

MULLIKEN ATOMIC CHARGES
-----------------------
   0 C :   -0.546520
   1 C :    0.075040
   2 C :   -0.190386
   3 C :   -0.365094
   4 C :   -0.017452
   5 H :    0.200493
   6 C :   -0.390478
   7 C :    0.042386
   8 H :    0.138989
   9 O :   -0.423110
  10 C :    0.087379
  11 C :   -0.389105
  12 C :   -0.545583
  13 H :    0.175960
  14 H :    0.148355
  15 H :    0.152372
  16 H :    0.151134
  17 H :    0.160751
  18 H :    0.163712
  19 H :    0.160344
  20 H :    0.165920
  21 H :    0.285251
  22 H :    0.136807
  23 H :    0.143857
  24 H :    0.163080
  25 H :    0.164238
  26 H :    0.151661
Sum of atomic charges:   -0.0000000

LOEWDIN ATOMIC CHARGES
----------------------
   0 C :   -0.386197
   1 C :   -0.094476
   2 C :   -0.176303
   3 C :   -0.264716
   4 C :   -0.196543
   5 H :    0.183880
   6 C :   -0.256998
   7 C :    0.079365
   8 H :    0.171177
   9 O :   -0.606214
  10 C :   -0.119905
  11 C :   -0.322522
  12 C :   -0.394764
  13 H :    0.170404
  14 H :    0.157564
  15 H :    0.159120
  16 H :    0.164157
  17 H :    0.169355
  18 H :    0.166174
  19 H :    0.163441
  20 H :    0.170198
  21 H :    0.267917
  22 H :    0.154833
  23 H :    0.158530
  24 H :    0.158871
  25 H :    0.163553
  26 H :    0.160100

  Mayer bond orders larger than 0.100000
B(  0-C ,  1-C ) :   0.8230 B(  0-C , 13-H ) :   0.9698 B(  0-C , 14-H ) :   0.9970
B(  0-C , 15-H ) :   0.9726 B(  1-C ,  2-C ) :   1.8629 B(  1-C ,  7-C ) :   0.9514
B(  2-C ,  3-C ) :   0.9210 B(  2-C , 16-H ) :   0.9205 B(  3-C ,  4-C ) :   0.9400
B(  3-C , 17-H ) :   0.9594 B(  3-C , 18-H ) :   0.9900 B(  4-C ,  5-H ) :   1.0002
B(  4-C ,  6-C ) :   0.8387 B(  4-C , 10-C ) :   0.8612 B(  6-C ,  7-C ) :   0.9550
B(  6-C , 19-H ) :   0.9814 B(  6-C , 20-H ) :   0.9761 B(  7-C ,  8-H ) :   0.9802
B(  7-C ,  9-O ) :   0.9386 B(  9-O , 21-H ) :   0.9024 B( 10-C , 11-C ) :   1.8751
B( 10-C , 12-C ) :   0.8719 B( 11-C , 22-H ) :   0.9705 B( 11-C , 23-H ) :   0.9887
B( 12-C , 24-H ) :   0.9817 B( 12-C , 25-H ) :   0.9646 B( 12-C , 26-H ) :   0.9807

Dispersion correction           -0.009590586
FINAL SINGLE POINT ENERGY      -465.757997691145

DIPOLE MOMENT
-------------

Method             : SCF
Type of density    : Electron Density
Multiplicity       :   1
Irrep              :   0
Energy             :  -465.7600018375028412 Eh
Relativity type    :
Basis              : AO
                                X                 Y                 Z
Electronic contribution:     -2.461408529      -1.718718549      -2.228030414
Nuclear contribution   :      2.571587768       1.613015824       2.837105749
                        -----------------------------------------
Total Dipole Moment    :      0.110179239      -0.105702725       0.609075335
                        -----------------------------------------
Magnitude (a.u.)       :      0.627921408
Magnitude (Debye)      :      1.596049378

Rotational constants in cm-1:             0.071649             0.022467             0.020398
Rotational constants in MHz :          2147.982105           673.543784           611.502528

                             ****ORCA TERMINATED NORMALLY****
TOTAL RUN TIME: 0 days 0 hours 0 minutes 43 seconds 67 msec
