                         Program Version 6.0.0  -   RELEASE  -
|  1> ! r2scan-3c def2/J RI DEFGRID2 scfconv6 printgap
|  2> %output
|  3>     printlevel normal
|  4> end
|  5> %cpcm
|  6>     smd true
|  7>     smdsolvent "water"
|  8> end
|  9> * xyz 0 1
| 10> C -3.4243376939 0.5776696194 0.0775181527
| 11> C -1.9294418504 0.4900651852 0.0825687988
| 12> C -1.1397617673 1.4980802743 -0.2601873388
| 13> C 0.3551836116 1.4409665824 -0.2879076155
| 14> C 0.85601927 -0.0078533399 -0.2680317247
| 15> H 0.5698085266 -0.4694099706 -1.2198750653
| 16> C 0.1153371134 -0.7539235638 0.8430707136
| 17> C -1.3678070693 -0.8579020269 0.4776507966
| 18> H -1.9311249016 -1.229303058 1.3513824366
| 19> O -1.5891046526 -1.7423113553 -0.6153279846
| 20> C 2.3567896814 -0.0700820272 -0.1354507425
| 21> C 3.1205728287 -0.354836235 -1.1792875292
| 22> C 2.9421076321 0.2120948636 1.2151292855
| 23> H -3.8299255696 -0.2163548788 -0.5477762066
| 24> H -3.7570638599 1.5383905554 -0.3045364713
| 25> H -3.8142541296 0.4426285461 1.0860003069
| 26> H -1.577441883 2.4496046979 -0.5319437012
| 27> H 0.7249169683 1.9485534647 -1.1818096787
| 28> H 0.7442128818 1.9867028454 0.5776427052
| 29> H 0.5328364969 -1.7551271314 0.9717245882
| 30> H 0.202389363 -0.2149533165 1.7867368645
| 31> H -1.2606489288 -2.620308767 -0.3805626225
| 32> H 4.1950703226 -0.384949256 -1.1091979628
| 33> H 2.7028343419 -0.56861326 -2.1489377727
| 34> H 2.5421091329 1.1364030848 1.6262208252
| 35> H 2.6990032483 -0.5929967303 1.9066650914
| 36> H 4.0234736696 0.2966001646 1.1520886658
| 37> *
| 38>
| 39>                          ****END OF INPUT****

CARTESIAN COORDINATES (ANGSTROEM)
---------------------------------
  C     -3.424338    0.577670    0.077518
  C     -1.929442    0.490065    0.082569
  C     -1.139762    1.498080   -0.260187
  C      0.355184    1.440967   -0.287908
  C      0.856019   -0.007853   -0.268032
  H      0.569809   -0.469410   -1.219875
  C      0.115337   -0.753924    0.843071
  C     -1.367807   -0.857902    0.477651
  H     -1.931125   -1.229303    1.351382
  O     -1.589105   -1.742311   -0.615328
  C      2.356790   -0.070082   -0.135451
  C      3.120573   -0.354836   -1.179288
  C      2.942108    0.212095    1.215129
  H     -3.829926   -0.216355   -0.547776
  H     -3.757064    1.538391   -0.304536
  H     -3.814254    0.442629    1.086000
  H     -1.577442    2.449605   -0.531944
  H      0.724917    1.948553   -1.181810
  H      0.744213    1.986703    0.577643
  H      0.532836   -1.755127    0.971725
  H      0.202389   -0.214953    1.786737
  H     -1.260649   -2.620309   -0.380563
  H      4.195070   -0.384949   -1.109198
  H      2.702834   -0.568613   -2.148938
  H      2.542109    1.136403    1.626221
  H      2.699003   -0.592997    1.906665
  H      4.023474    0.296600    1.152089

 Total Charge           Charge          ....    0
 Multiplicity           Mult            ....    1
 Number of Electrons    NEL             ....   84
 Basis Dimension        Dim             ....  294

ORBITAL ENERGIES
----------------

  NO   OCC          E(Eh)            E(eV)
   0   2.0000     -18.949942      -515.6541
   1   2.0000     -10.078832      -274.2590
   2   2.0000     -10.037248      -273.1274
   3   2.0000     -10.029728      -272.9228
   4   2.0000     -10.028449      -272.8880
   5   2.0000     -10.024430      -272.7786
   6   2.0000     -10.021209      -272.6910
   7   2.0000     -10.019518      -272.6450
   8   2.0000     -10.014900      -272.5193
   9   2.0000     -10.014285      -272.5025
  10   2.0000     -10.005634      -272.2671
  11   2.0000      -0.986935       -26.8559
  12   2.0000      -0.808914       -22.0117
  13   2.0000      -0.768100       -20.9011
  14   2.0000      -0.716548       -19.4983
  15   2.0000      -0.698195       -18.9988
  16   2.0000      -0.649630       -17.6773
  17   2.0000      -0.638964       -17.3871
  18   2.0000      -0.586281       -15.9535
  19   2.0000      -0.565431       -15.3862
  20   2.0000      -0.495925       -13.4948
  21   2.0000      -0.482699       -13.1349
  22   2.0000      -0.459590       -12.5061
  23   2.0000      -0.442525       -12.0417
  24   2.0000      -0.416208       -11.3256
  25   2.0000      -0.410928       -11.1819
  26   2.0000      -0.399322       -10.8661
  27   2.0000      -0.384337       -10.4583
  28   2.0000      -0.377925       -10.2839
  29   2.0000      -0.373786       -10.1712
  30   2.0000      -0.366943        -9.9850
  31   2.0000      -0.361815        -9.8455
  32   2.0000      -0.336210        -9.1487
  33   2.0000      -0.331556        -9.0221
  34   2.0000      -0.326489        -8.8842
  35   2.0000      -0.308331        -8.3901
  36   2.0000      -0.293353        -7.9825
  37   2.0000      -0.291921        -7.9436
  38   2.0000      -0.267625        -7.2825
  39   2.0000      -0.240180        -6.5356
  40   2.0000      -0.224553        -6.1104
  41   2.0000      -0.216323        -5.8864
  42   0.0000      -0.010414        -0.2834
  43   0.0000      -0.002416        -0.0657
  44   0.0000       0.073976         2.0130
  45   0.0000       0.098673         2.6850
  46   0.0000       0.104180         2.8349

MULLIKEN ATOMIC CHARGES
-----------------------
   0 C :   -0.567137
   1 C :    0.017012
   2 C :   -0.226483
   3 C :   -0.373250
   4 C :   -0.000711
   5 H :    0.195893
   6 C :   -0.399258
   7 C :    0.073370
   8 H :    0.159842
   9 O :   -0.505925
  10 C :    0.047126
  11 C :   -0.466924
  12 C :   -0.570769
  13 H :    0.172920
  14 H :    0.167349
  15 H :    0.174042
  16 H :    0.175442
  17 H :    0.172159
  18 H :    0.190194
  19 H :    0.180591
  20 H :    0.182031
  21 H :    0.340963
  22 H :    0.162654
  23 H :    0.164843
  24 H :    0.184818
  25 H :    0.182546
  26 H :    0.166664
Sum of atomic charges:   -0.0000000

LOEWDIN ATOMIC CHARGES
----------------------
   0 C :   -0.394044
   1 C :   -0.109715
   2 C :   -0.184464
   3 C :   -0.267675
   4 C :   -0.199395
   5 H :    0.179499
   6 C :   -0.253719
   7 C :    0.081717
   8 H :    0.181461
   9 O :   -0.639965
  10 C :   -0.119698
  11 C :   -0.352297
  12 C :   -0.400638
  13 H :    0.167982
  14 H :    0.162983
  15 H :    0.166691
  16 H :    0.172100
  17 H :    0.171729
  18 H :    0.175496
  19 H :    0.172138
  20 H :    0.176354
  21 H :    0.286976
  22 H :    0.161154
  23 H :    0.163143
  24 H :    0.167470
  25 H :    0.170913
  26 H :    0.163804

  Mayer bond orders larger than 0.100000
B(  0-C ,  1-C ) :   0.8354 B(  0-C , 13-H ) :   0.9671 B(  0-C , 14-H ) :   0.9915
B(  0-C , 15-H ) :   0.9664 B(  1-C ,  2-C ) :   1.8616 B(  1-C ,  7-C ) :   0.9273
B(  2-C ,  3-C ) :   0.9105 B(  2-C , 16-H ) :   0.9293 B(  3-C ,  4-C ) :   0.9192
B(  3-C , 17-H ) :   0.9582 B(  3-C , 18-H ) :   0.9822 B(  4-C ,  5-H ) :   1.0049
B(  4-C ,  6-C ) :   0.8207 B(  4-C , 10-C ) :   0.8458 B(  6-C ,  7-C ) :   0.9510
B(  6-C , 19-H ) :   0.9723 B(  6-C , 20-H ) :   0.9764 B(  7-C ,  8-H ) :   0.9709
B(  7-C ,  9-O ) :   0.9212 B(  9-O , 21-H ) :   0.8763 B( 10-C , 11-C ) :   1.8561
B( 10-C , 12-C ) :   0.8843 B( 11-C , 22-H ) :   0.9713 B( 11-C , 23-H ) :   0.9868
B( 12-C , 24-H ) :   0.9727 B( 12-C , 25-H ) :   0.9574 B( 12-C , 26-H ) :   0.9770

Dispersion correction           -0.009590586
FINAL SINGLE POINT ENERGY      -465.765477842671

DIPOLE MOMENT
-------------

Method             : SCF
Type of density    : Electron Density
Multiplicity       :   1
Irrep              :   0
Energy             :  -465.7674819890281697 Eh
Relativity type    :
Basis              : AO
                                X                 Y                 Z
Electronic contribution:     -2.386868207      -1.738516752      -1.787694177
Nuclear contribution   :      2.571587768       1.613015824       2.837105749
                        -----------------------------------------
Total Dipole Moment    :      0.184719561      -0.125500928       1.049411572
                        -----------------------------------------
Magnitude (a.u.)       :      1.072910269
Magnitude (Debye)      :      2.727121177

Rotational constants in cm-1:             0.071649             0.022467             0.020398
Rotational constants in MHz :          2147.982105           673.543784           611.502528

                             ****ORCA TERMINATED NORMALLY****
TOTAL RUN TIME: 0 days 0 hours 0 minutes 56 seconds 498 msec
