                         Program Version 6.0.0  -   RELEASE  -
|  1> ! pbe def2-sv(p) def2/J RI DEFGRID1 loosescf d4 GCP(DFT/SV(P)) printgap
|  2> %output
|  3>     printlevel normal
|  4> end
|  5> * xyz 0 1
|  6> C -2.9289138497 -4.75213e-05 -0.0080094242
|  7> C -2.2392534448 1.2017746277 -0.0008817536
|  8> C -0.8555782041 1.2090045371 0.0133835891
|  9> C -0.1705508323 7.92126e-05 0.0246660395
| 10> C -0.8554762323 -1.2089300114 0.0133589296
| 11> C -2.2391708709 -1.2018279043 -0.0008752665
| 12> C 1.3252449927 3.24753e-05 0.008242187
| 13> F 1.8707011148 1.075321096 0.6084551526
| 14> F 1.8706285774 -1.0743151271 0.61025555
| 15> F 1.8329333788 -0.0010601725 -1.2507061992
| 16> H -4.0072165683 -6.9561e-05 -0.0195169929
| 17> H -2.7755788739 2.1367799237 -0.0072270331
| 18> H -0.3067206012 2.1377853344 0.021219522
| 19> H -0.3065201405 -2.1376336742 0.0212290698
| 20> H -2.7754132549 -2.1368581772 -0.0070570531
| 21> *
| 22>
| 23>                          ****END OF INPUT****

CARTESIAN COORDINATES (ANGSTROEM)
---------------------------------
  C     -2.928914   -0.000048   -0.008009
  C     -2.239253    1.201775   -0.000882
  C     -0.855578    1.209005    0.013384
  C     -0.170551    0.000079    0.024666
  C     -0.855476   -1.208930    0.013359
  C     -2.239171   -1.201828   -0.000875
  C      1.325245    0.000032    0.008242
  F      1.870701    1.075321    0.608455
  F      1.870629   -1.074315    0.610256
  F      1.832933   -0.001060   -1.250706
  H     -4.007217   -0.000070   -0.019517
  H     -2.775579    2.136780   -0.007227
  H     -0.306721    2.137785    0.021220
  H     -0.306520   -2.137634    0.021229
  H     -2.775413   -2.136858   -0.007057

 Total Charge           Charge          ....    0
 Multiplicity           Mult            ....    1
 Number of Electrons    NEL             ....   74
 Basis Dimension        Dim             ....  150

ORBITAL ENERGIES
----------------

  NO   OCC          E(Eh)            E(eV)
   0   2.0000     -24.282873      -660.7706
   1   2.0000     -24.282808      -660.7688
   2   2.0000     -24.274139      -660.5329
   3   2.0000     -10.121903      -275.4310
   4   2.0000      -9.923721      -270.0382
   5   2.0000      -9.915010      -269.8011
   6   2.0000      -9.915002      -269.8009
   7   2.0000      -9.914231      -269.7799
   8   2.0000      -9.912854      -269.7425
   9   2.0000      -9.912850      -269.7424
  10   2.0000      -1.182960       -32.1900
  11   2.0000      -1.092612       -29.7315
  12   2.0000      -1.084527       -29.5115
  13   2.0000      -0.800809       -21.7911
  14   2.0000      -0.713552       -19.4167
  15   2.0000      -0.692033       -18.8312
  16   2.0000      -0.623052       -16.9541
  17   2.0000      -0.567313       -15.4374
  18   2.0000      -0.562947       -15.3186
  19   2.0000      -0.516916       -14.0660
  20   2.0000      -0.514594       -14.0028
  21   2.0000      -0.513888       -13.9836
  22   2.0000      -0.457383       -12.4460
  23   2.0000      -0.424337       -11.5468
  24   2.0000      -0.414483       -11.2787
  25   2.0000      -0.397307       -10.8113
  26   2.0000      -0.391401       -10.6506
  27   2.0000      -0.390086       -10.6148
  28   2.0000      -0.362648        -9.8682
  29   2.0000      -0.356063        -9.6890
  30   2.0000      -0.348518        -9.4837
  31   2.0000      -0.340542        -9.2666
  32   2.0000      -0.330314        -8.9883
  33   2.0000      -0.321985        -8.7617
  34   2.0000      -0.314764        -8.5652
  35   2.0000      -0.250602        -6.8192
  36   2.0000      -0.250286        -6.8106
  37   0.0000      -0.064690        -1.7603
  38   0.0000      -0.054253        -1.4763
  39   0.0000       0.033900         0.9225
  40   0.0000       0.070476         1.9177
  41   0.0000       0.075996         2.0679

MULLIKEN ATOMIC CHARGES
-----------------------
   0 C :   -0.037998
   1 C :   -0.047971
   2 C :   -0.085296
   3 C :   -0.030188
   4 C :   -0.085281
   5 C :   -0.047959
   6 C :    0.438173
   7 F :   -0.140246
   8 F :   -0.140286
   9 F :   -0.148537
  10 H :    0.064477
  11 H :    0.064385
  12 H :    0.066171
  13 H :    0.066176
  14 H :    0.064380
Sum of atomic charges:   -0.0000000

LOEWDIN ATOMIC CHARGES
----------------------
   0 C :   -0.109558
   1 C :   -0.114307
   2 C :   -0.101568
   3 C :   -0.090192
   4 C :   -0.101546
   5 C :   -0.114305
   6 C :    0.132954
   7 F :   -0.046977
   8 F :   -0.047008
   9 F :   -0.062082
  10 H :    0.128784
  11 H :    0.129419
  12 H :    0.133481
  13 H :    0.133482
  14 H :    0.129421

  Mayer bond orders larger than 0.100000
B(  0-C ,  1-C ) :   1.3798 B(  0-C ,  5-C ) :   1.3797 B(  0-C , 10-H ) :   0.9652
B(  1-C ,  2-C ) :   1.3697 B(  1-C , 11-H ) :   0.9652 B(  2-C ,  3-C ) :   1.3835
B(  2-C , 12-H ) :   0.9646 B(  3-C ,  4-C ) :   1.3834 B(  3-C ,  6-C ) :   0.9493
B(  4-C ,  5-C ) :   1.3697 B(  4-C , 13-H ) :   0.9646 B(  5-C , 14-H ) :   0.9652
B(  6-C ,  7-F ) :   1.1637 B(  6-C ,  8-F ) :   1.1636 B(  6-C ,  9-F ) :   1.1788

Dispersion correction           -0.015542580
FINAL SINGLE POINT ENERGY      -568.180558497708

DIPOLE MOMENT
-------------

Method             : SCF
Type of density    : Electron Density
Multiplicity       :   1
Irrep              :   0
Energy             :  -568.2387008562230903 Eh
Relativity type    :
Basis              : AO
                                X                 Y                 Z
Electronic contribution:     13.652979377       0.000018780      -0.005702716
Nuclear contribution   :    -14.707292211       0.000053829       0.037757453
                        -----------------------------------------
Total Dipole Moment    :     -1.054312834       0.000072608       0.032054737
                        -----------------------------------------
Magnitude (a.u.)       :      1.054800011
Magnitude (Debye)      :      2.681088560

Rotational constants in cm-1:             0.095804             0.031507             0.027045
Rotational constants in MHz :          2872.138849           944.551246           810.780772

                             ****ORCA TERMINATED NORMALLY****
TOTAL RUN TIME: 0 days 0 hours 0 minutes 7 seconds 651 msec
