                         Program Version 6.0.0  -   RELEASE  -
|  1> ! wb97x-v def2-tzvp def2/J RIJCOSX DEFGRID2 scfconv7 GCP(DFT/TZ) printgap
|  2> %output
|  3>     printlevel normal
|  4> end
|  5> * xyz 0 1
|  6> C 0.6459164606944519 -1.4221340608097468 1.3062931589634145e-06
|  7> C 0.5204152933911834 0.07390353958389863 -7.81369344006009e-06
|  8> C 1.5990758271480308 0.8762762160107016 -1.3635258518615968e-05
|  9> C -0.8170520753270215 0.6641250578324014 -1.9214259828896198e-05
| 10> C -1.9674891567625168 -0.021736995231559385 -2.7003934402207006e-05
| 11> H 0.15748295838725299 -1.856165687606322 0.8800601078621823
| 12> H 1.6950377772691712 -1.7255323657331365 -1.7752495384415775e-05
| 13> H 0.15744597535449048 -1.856179892973231 -0.8800296364884397
| 14> H 1.4927677281249943 1.9581831657135071 -3.0462628062599997e-06
| 15> H 2.606579484376512 0.4703191305110335 4.656901643812507e-07
| 16> H -0.84962902544065 1.7533125282950162 -2.0091522336762708e-05
| 17> H -2.921715105536024 0.49634628987635376 2.810459874820904e-06
| 18> H -1.995528945809182 -1.1077197674123465 7.650525335515152e-06
| 19> *
| 20>
| 21>                          ****END OF INPUT****

CARTESIAN COORDINATES (ANGSTROEM)
---------------------------------
  C      0.645916   -1.422134    0.000001
  C      0.520415    0.073904   -0.000008
  C      1.599076    0.876276   -0.000014
  C     -0.817052    0.664125   -0.000019
  C     -1.967489   -0.021737   -0.000027
  H      0.157483   -1.856166    0.880060
  H      1.695038   -1.725532   -0.000018
  H      0.157446   -1.856180   -0.880030
  H      1.492768    1.958183   -0.000003
  H      2.606579    0.470319    0.000000
  H     -0.849629    1.753313   -0.000020
  H     -2.921715    0.496346    0.000003
  H     -1.995529   -1.107720    0.000008

 Total Charge           Charge          ....    0
 Multiplicity           Mult            ....    1
 Number of Electrons    NEL             ....   38
 Basis Dimension        Dim             ....  203

ORBITAL ENERGIES
----------------

  NO   OCC          E(Eh)            E(eV)
   0   2.0000     -12.063107      -328.2538
   1   2.0000     -12.054356      -328.0157
   2   2.0000     -12.044674      -327.7523
   3   2.0000     -12.043047      -327.7080
   4   2.0000     -12.041413      -327.6635
   5   2.0000      -1.345314       -36.6079
   6   2.0000      -1.264755       -34.4157
   7   2.0000      -1.191945       -32.4345
   8   2.0000      -1.089844       -29.6562
   9   2.0000      -0.986397       -26.8412
  10   2.0000      -0.926732       -25.2177
  11   2.0000      -0.915683       -24.9170
  12   2.0000      -0.860502       -23.4154
  13   2.0000      -0.837128       -22.7794
  14   2.0000      -0.828383       -22.5414
  15   2.0000      -0.811251       -22.0753
  16   2.0000      -0.781563       -21.2674
  17   2.0000      -0.707544       -19.2533
  18   2.0000      -0.612965       -16.6796
  19   0.0000      -0.247234        -6.7276
  20   0.0000      -0.133268        -3.6264
  21   0.0000      -0.026390        -0.7181
  22   0.0000      -0.011938        -0.3248
  23   0.0000      -0.000859        -0.0234

MULLIKEN ATOMIC CHARGES
-----------------------
   0 C :   -0.370838
   1 C :    0.110124
   2 C :   -0.287339
   3 C :   -0.132303
   4 C :   -0.282396
   5 H :    0.127983
   6 H :    0.115241
   7 H :    0.127981
   8 H :    0.117372
   9 H :    0.116809
  10 H :    0.106665
  11 H :    0.123904
  12 H :    0.126797
Sum of atomic charges:    0.0000000

LOEWDIN ATOMIC CHARGES
----------------------
   0 C :   -0.251871
   1 C :   -0.224291
   2 C :   -0.173003
   3 C :   -0.162674
   4 C :   -0.196817
   5 H :    0.127829
   6 H :    0.125164
   7 H :    0.127829
   8 H :    0.121332
   9 H :    0.119887
  10 H :    0.145730
  11 H :    0.120051
  12 H :    0.120835

  Mayer bond orders larger than 0.100000
B(  0-C ,  1-C ) :   0.9254 B(  0-C ,  5-H ) :   0.9762 B(  0-C ,  6-H ) :   0.9852
B(  0-C ,  7-H ) :   0.9762 B(  1-C ,  2-C ) :   1.8374 B(  1-C ,  3-C ) :   1.0144
B(  2-C ,  8-H ) :   0.9723 B(  2-C ,  9-H ) :   0.9681 B(  3-C ,  4-C ) :   1.9007
B(  3-C , 10-H ) :   0.9686 B(  4-C , 11-H ) :   0.9732 B(  4-C , 12-H ) :   0.9629

FINAL SINGLE POINT ENERGY      -195.310098235841

DIPOLE MOMENT
-------------

Method             : SCF
Type of density    : Electron Density
Multiplicity       :   1
Irrep              :   0
Energy             :  -195.3175513085411126 Eh
Relativity type    :
Basis              : AO
                                X                 Y                 Z
Electronic contribution:     -0.298508969       1.668435520      -0.000057990
Nuclear contribution   :      0.308558789      -1.770132182       0.000088241
                        -----------------------------------------
Total Dipole Moment    :      0.010049820      -0.101696662       0.000030251
                        -----------------------------------------
Magnitude (a.u.)       :      0.102192029
Magnitude (Debye)      :      0.259751496

Rotational constants in cm-1:             0.285417             0.139969             0.095576
Rotational constants in MHz :          8556.594419          4196.160871          2865.304216

                             ****ORCA TERMINATED NORMALLY****
TOTAL RUN TIME: 0 days 0 hours 1 minutes 3 seconds 949 msec
