                         Program Version 6.0.0  -   RELEASE  -
|  1> ! wb97x-v def2-tzvp def2/J RIJCOSX DEFGRID2 scfconv7 GCP(DFT/TZ) printgap
|  2> %output
|  3>     printlevel normal
|  4> end
|  5> %cpcm
|  6>     smd true
|  7>     smdsolvent "water"
|  8> end
|  9> * xyz 0 1
| 10> C 0.6459164606944519 -1.4221340608097468 1.3062931589634145e-06
| 11> C 0.5204152933911834 0.07390353958389863 -7.81369344006009e-06
| 12> C 1.5990758271480308 0.8762762160107016 -1.3635258518615968e-05
| 13> C -0.8170520753270215 0.6641250578324014 -1.9214259828896198e-05
| 14> C -1.9674891567625168 -0.021736995231559385 -2.7003934402207006e-05
| 15> H 0.15748295838725299 -1.856165687606322 0.8800601078621823
| 16> H 1.6950377772691712 -1.7255323657331365 -1.7752495384415775e-05
| 17> H 0.15744597535449048 -1.856179892973231 -0.8800296364884397
| 18> H 1.4927677281249943 1.9581831657135071 -3.0462628062599997e-06
| 19> H 2.606579484376512 0.4703191305110335 4.656901643812507e-07
| 20> H -0.84962902544065 1.7533125282950162 -2.0091522336762708e-05
| 21> H -2.921715105536024 0.49634628987635376 2.810459874820904e-06
| 22> H -1.995528945809182 -1.1077197674123465 7.650525335515152e-06
| 23> *
| 24>
| 25>                          ****END OF INPUT****

CARTESIAN COORDINATES (ANGSTROEM)
---------------------------------
  C      0.645916   -1.422134    0.000001
  C      0.520415    0.073904   -0.000008
  C      1.599076    0.876276   -0.000014
  C     -0.817052    0.664125   -0.000019
  C     -1.967489   -0.021737   -0.000027
  H      0.157483   -1.856166    0.880060
  H      1.695038   -1.725532   -0.000018
  H      0.157446   -1.856180   -0.880030
  H      1.492768    1.958183   -0.000003
  H      2.606579    0.470319    0.000000
  H     -0.849629    1.753313   -0.000020
  H     -2.921715    0.496346    0.000003
  H     -1.995529   -1.107720    0.000008

 Total Charge           Charge          ....    0
 Multiplicity           Mult            ....    1
 Number of Electrons    NEL             ....   38
 Basis Dimension        Dim             ....  203

ORBITAL ENERGIES
----------------

  NO   OCC          E(Eh)            E(eV)
   0   2.0000     -12.060183      -328.1743
   1   2.0000     -12.050463      -327.9098
   2   2.0000     -12.039847      -327.6209
   3   2.0000     -12.035880      -327.5130
   4   2.0000     -12.032935      -327.4328
   5   2.0000      -1.341962       -36.5166
   6   2.0000      -1.261231       -34.3198
   7   2.0000      -1.184765       -32.2391
   8   2.0000      -1.085571       -29.5399
   9   2.0000      -0.980500       -26.6807
  10   2.0000      -0.921519       -25.0758
  11   2.0000      -0.910247       -24.7691
  12   2.0000      -0.855046       -23.2670
  13   2.0000      -0.828759       -22.5517
  14   2.0000      -0.821614       -22.3573
  15   2.0000      -0.802246       -21.8302
  16   2.0000      -0.775364       -21.0987
  17   2.0000      -0.705363       -19.1939
  18   2.0000      -0.611134       -16.6298
  19   0.0000      -0.245297        -6.6749
  20   0.0000      -0.131118        -3.5679
  21   0.0000      -0.017874        -0.4864
  22   0.0000      -0.003139        -0.0854
  23   0.0000       0.009889         0.2691

MULLIKEN ATOMIC CHARGES
-----------------------
   0 C :   -0.390386
   1 C :    0.059677
   2 C :   -0.358771
   3 C :   -0.185311
   4 C :   -0.350523
   5 H :    0.143208
   6 H :    0.140443
   7 H :    0.143206
   8 H :    0.158014
   9 H :    0.158330
  10 H :    0.152582
  11 H :    0.163147
  12 H :    0.166383
Sum of atomic charges:    0.0000000

LOEWDIN ATOMIC CHARGES
----------------------
   0 C :   -0.254924
   1 C :   -0.235987
   2 C :   -0.186681
   3 C :   -0.176138
   4 C :   -0.206100
   5 H :    0.132294
   6 H :    0.129849
   7 H :    0.132293
   8 H :    0.128566
   9 H :    0.127183
  10 H :    0.154004
  11 H :    0.126899
  12 H :    0.128741

  Mayer bond orders larger than 0.100000
B(  0-C ,  1-C ) :   0.9367 B(  0-C ,  5-H ) :   0.9689 B(  0-C ,  6-H ) :   0.9815
B(  0-C ,  7-H ) :   0.9689 B(  1-C ,  2-C ) :   1.8285 B(  1-C ,  3-C ) :   0.9989
B(  2-C ,  8-H ) :   0.9659 B(  2-C ,  9-H ) :   0.9675 B(  3-C ,  4-C ) :   1.8902
B(  3-C , 10-H ) :   0.9654 B(  4-C , 11-H ) :   0.9697 B(  4-C , 12-H ) :   0.9592

FINAL SINGLE POINT ENERGY      -195.308765033426

DIPOLE MOMENT
-------------

Method             : SCF
Type of density    : Electron Density
Multiplicity       :   1
Irrep              :   0
Energy             :  -195.3162181061258025 Eh
Relativity type    :
Basis              : AO
                                X                 Y                 Z
Electronic contribution:     -0.314985888       1.621900788      -0.000045707
Nuclear contribution   :      0.308558789      -1.770132182       0.000088241
                        -----------------------------------------
Total Dipole Moment    :     -0.006427099      -0.148231395       0.000042533
                        -----------------------------------------
Magnitude (a.u.)       :      0.148370670
Magnitude (Debye)      :      0.377128273

Rotational constants in cm-1:             0.285417             0.139969             0.095576
Rotational constants in MHz :          8556.594419          4196.160871          2865.304216

                             ****ORCA TERMINATED NORMALLY****
TOTAL RUN TIME: 0 days 0 hours 1 minutes 2 seconds 51 msec
