                         Program Version 6.0.0  -   RELEASE  -
|  1> ! pbe def2-sv(p) def2/J RI DEFGRID1 loosescf d4 GCP(DFT/SV(P)) printgap
|  2> %output
|  3>     printlevel normal
|  4> end
|  5> * xyz 0 1
|  6> C -1.7519708867 -1.0364779432 -0.6809762814
|  7> C -1.0733319301 -0.4734319997 0.5855158353
|  8> H -1.7655016524 -0.5855901361 1.4282285264
|  9> C -0.7120760556 1.0165193761 0.484459745
| 10> H -1.5764527578 1.5616063441 0.0936785627
| 11> C 0.487109849 1.2466123458 -0.4541934189
| 12> H 0.8073889272 2.2923477807 -0.3075014126
| 13> C 1.6595432704 0.3333211445 -0.0380572993
| 14> H 2.4004996718 0.2977907658 -0.8493462686
| 15> C 1.220807095 -1.1238325349 0.1948813624
| 16> H 1.9930172426 -1.5947459762 0.8249054727
| 17> O 0.0568753644 -1.2568217566 0.9657355397
| 18> O 1.1386117403 -1.7508502394 -1.0469897642
| 19> O 2.2428821978 0.7749143202 1.1649419347
| 20> O 0.0677726077 1.0476711457 -1.7774982127
| 21> O -0.4613219063 1.5675631767 1.753685222
| 22> O -2.9680427044 -0.3898830783 -0.9736674573
| 23> H -1.9996695947 -2.0833316753 -0.4845688712
| 24> H -1.0636248364 -0.9805771241 -1.5268062266
| 25> H 0.9888169635 -2.7004924127 -0.9286552445
| 26> H 2.7159176677 1.6074282035 1.0184773001
| 27> H 0.7942041108 1.2334388231 -2.3894983302
| 28> H 0.2977717801 1.1059687296 2.1479403868
| 29> H -2.7862337042 0.4081013003 -1.4872484961
| 30> *
| 31>
| 32>                          ****END OF INPUT****

CARTESIAN COORDINATES (ANGSTROEM)
---------------------------------
  C     -1.751971   -1.036478   -0.680976
  C     -1.073332   -0.473432    0.585516
  H     -1.765502   -0.585590    1.428229
  C     -0.712076    1.016519    0.484460
  H     -1.576453    1.561606    0.093679
  C      0.487110    1.246612   -0.454193
  H      0.807389    2.292348   -0.307501
  C      1.659543    0.333321   -0.038057
  H      2.400500    0.297791   -0.849346
  C      1.220807   -1.123833    0.194881
  H      1.993017   -1.594746    0.824905
  O      0.056875   -1.256822    0.965736
  O      1.138612   -1.750850   -1.046990
  O      2.242882    0.774914    1.164942
  O      0.067773    1.047671   -1.777498
  O     -0.461322    1.567563    1.753685
  O     -2.968043   -0.389883   -0.973667
  H     -1.999670   -2.083332   -0.484569
  H     -1.063625   -0.980577   -1.526806
  H      0.988817   -2.700492   -0.928655
  H      2.715918    1.607428    1.018477
  H      0.794204    1.233439   -2.389498
  H      0.297772    1.105969    2.147940
  H     -2.786234    0.408101   -1.487248

 Total Charge           Charge          ....    0
 Multiplicity           Mult            ....    1
 Number of Electrons    NEL             ....   96
 Basis Dimension        Dim             ....  192

ORBITAL ENERGIES
----------------

  NO   OCC          E(Eh)            E(eV)
   0   2.0000     -18.778027      -510.9761
   1   2.0000     -18.768862      -510.7267
   2   2.0000     -18.766307      -510.6572
   3   2.0000     -18.766204      -510.6544
   4   2.0000     -18.737030      -509.8605
   5   2.0000     -18.736683      -509.8511
   6   2.0000      -9.989900      -271.8390
   7   2.0000      -9.955414      -270.9006
   8   2.0000      -9.949918      -270.7510
   9   2.0000      -9.937500      -270.4131
  10   2.0000      -9.929597      -270.1981
  11   2.0000      -9.912609      -269.7358
  12   2.0000      -0.982520       -26.7357
  13   2.0000      -0.953054       -25.9339
  14   2.0000      -0.942912       -25.6579
  15   2.0000      -0.923000       -25.1161
  16   2.0000      -0.910999       -24.7895
  17   2.0000      -0.906276       -24.6610
  18   2.0000      -0.699146       -19.0247
  19   2.0000      -0.690684       -18.7945
  20   2.0000      -0.619380       -16.8542
  21   2.0000      -0.582740       -15.8572
  22   2.0000      -0.570793       -15.5321
  23   2.0000      -0.531025       -14.4499
  24   2.0000      -0.504206       -13.7202
  25   2.0000      -0.482001       -13.1159
  26   2.0000      -0.469525       -12.7764
  27   2.0000      -0.465841       -12.6762
  28   2.0000      -0.451063       -12.2740
  29   2.0000      -0.425414       -11.5761
  30   2.0000      -0.409752       -11.1499
  31   2.0000      -0.391045       -10.6409
  32   2.0000      -0.383264       -10.4291
  33   2.0000      -0.368797       -10.0355
  34   2.0000      -0.361453        -9.8356
  35   2.0000      -0.352829        -9.6010
  36   2.0000      -0.338255        -9.2044
  37   2.0000      -0.324500        -8.8301
  38   2.0000      -0.298377        -8.1192
  39   2.0000      -0.293049        -7.9743
  40   2.0000      -0.273522        -7.4429
  41   2.0000      -0.263683        -7.1752
  42   2.0000      -0.254673        -6.9300
  43   2.0000      -0.250258        -6.8099
  44   2.0000      -0.239590        -6.5196
  45   2.0000      -0.221358        -6.0235
  46   2.0000      -0.211054        -5.7431
  47   2.0000      -0.193764        -5.2726
  48   0.0000       0.002627         0.0715
  49   0.0000       0.007990         0.2174
  50   0.0000       0.028999         0.7891
  51   0.0000       0.047803         1.3008
  52   0.0000       0.066397         1.8068

MULLIKEN ATOMIC CHARGES
-----------------------
   0 C :    0.005182
   1 C :    0.027633
   2 H :    0.078818
   3 C :    0.060643
   4 H :    0.061881
   5 C :    0.054578
   6 H :    0.054599
   7 C :   -0.012161
   8 H :    0.065351
   9 C :    0.216450
  10 H :    0.070693
  11 O :   -0.316383
  12 O :   -0.394040
  13 O :   -0.412771
  14 O :   -0.403734
  15 O :   -0.431410
  16 O :   -0.436729
  17 H :    0.072298
  18 H :    0.111717
  19 H :    0.306971
  20 H :    0.311427
  21 H :    0.306130
  22 H :    0.299316
  23 H :    0.303542
Sum of atomic charges:   -0.0000000

LOEWDIN ATOMIC CHARGES
----------------------
   0 C :   -0.153087
   1 C :   -0.071483
   2 H :    0.120625
   3 C :   -0.065379
   4 H :    0.113829
   5 C :   -0.081270
   6 H :    0.095396
   7 C :   -0.089274
   8 H :    0.104344
   9 C :   -0.000646
  10 H :    0.101939
  11 O :   -0.142877
  12 O :   -0.306213
  13 O :   -0.303692
  14 O :   -0.306803
  15 O :   -0.318548
  16 O :   -0.336562
  17 H :    0.106437
  18 H :    0.106753
  19 H :    0.289031
  20 H :    0.292754
  21 H :    0.289519
  22 H :    0.272033
  23 H :    0.283175

  Mayer bond orders larger than 0.100000
B(  0-C ,  1-C ) :   1.0221 B(  0-C , 16-O ) :   1.0751 B(  0-C , 17-H ) :   0.9163
B(  0-C , 18-H ) :   0.8967 B(  1-C ,  2-H ) :   0.8928 B(  1-C ,  3-C ) :   1.0221
B(  1-C , 11-O ) :   0.9659 B(  3-C ,  4-H ) :   0.8839 B(  3-C ,  5-C ) :   0.9685
B(  3-C , 15-O ) :   1.0628 B(  5-C ,  6-H ) :   0.9016 B(  5-C ,  7-C ) :   0.9629
B(  5-C , 14-O ) :   1.0650 B(  7-C ,  8-H ) :   0.8920 B(  7-C ,  9-C ) :   0.9877
B(  7-C , 13-O ) :   1.0439 B(  9-C , 10-H ) :   0.9020 B(  9-C , 11-O ) :   1.0798
B(  9-C , 12-O ) :   1.1222 B( 12-O , 19-H ) :   0.8362 B( 13-O , 20-H ) :   0.8397
B( 14-O , 21-H ) :   0.8403 B( 15-O , 22-H ) :   0.8213 B( 16-O , 23-H ) :   0.8452

Dispersion correction           -0.025969288
FINAL SINGLE POINT ENERGY      -685.693059771309

DIPOLE MOMENT
-------------

Method             : SCF
Type of density    : Electron Density
Multiplicity       :   1
Irrep              :   0
Energy             :  -685.8240557229941032 Eh
Relativity type    :
Basis              : AO
                                X                 Y                 Z
Electronic contribution:      0.853214650      -0.236309841       1.464350779
Nuclear contribution   :      0.757428076       0.527089931      -2.306991576
                        -----------------------------------------
Total Dipole Moment    :      1.610642726       0.290780090      -0.842640797
                        -----------------------------------------
Magnitude (a.u.)       :      1.840860279
Magnitude (Debye)      :      4.679094975

Rotational constants in cm-1:             0.040638             0.028870             0.025096
Rotational constants in MHz :          1218.298045           865.515057           752.352597

                             ****ORCA TERMINATED NORMALLY****
TOTAL RUN TIME: 0 days 0 hours 0 minutes 12 seconds 197 msec
