                         Program Version 6.0.0  -   RELEASE  -
|  1> ! wb97x-v def2-tzvp def2/J RIJCOSX DEFGRID2 scfconv7 GCP(DFT/TZ) printgap
|  2> %output
|  3>     printlevel normal
|  4> end
|  5> * xyz 0 1
|  6> C -2.7449619878682414 -0.2570434903161156 5.3360337787344784e-05
|  7> C -2.352975786021692 1.098289839906908 0.00010360928178021815
|  8> C -1.0195559032030415 1.4376539835114635 0.00011337578599549359
|  9> C -0.023558074778155722 0.4323363265375369 7.938085185421099e-05
| 10> C -0.41445516619028105 -0.9452861626421826 4.106522295721513e-05
| 11> C -1.797515565183985 -1.253366255782421 2.1722025830624023e-05
| 12> C 0.5768490575754528 -1.957513680872796 2.873626198444165e-05
| 13> C 1.90869538443021 -1.6174347617977145 4.522305391703023e-05
| 14> C 2.313262007854394 -0.2676506668448276 6.781591335567314e-05
| 15> C 1.366910353577961 0.7342450137484562 8.059470295628234e-05
| 16> O 1.7049296795176576 2.0646294097850633 9.71759173015138e-05
| 17> H -3.8003748122377368 -0.5106765559177354 3.808054765743668e-05
| 18> H -3.109246217525542 1.8766991436273732 0.00013913826592004097
| 19> H -0.7247589097812017 2.480765750257565 0.00015073560328271853
| 20> H -2.0959127791639607 -2.297953791411288 -2.317634069296111e-05
| 21> H 0.2670571121866475 -2.9979496146313975 7.385751126565282e-06
| 22> H 2.6695874125715005 -2.3916837899144037 4.9139157097435326e-05
| 23> H 3.368659478904337 -0.009717766780443346 7.963996139574912e-05
| 24> H 2.6694991877902665 2.1420047811126386 5.671174750470032e-05
| 25> *
| 26>
| 27>                          ****END OF INPUT****

CARTESIAN COORDINATES (ANGSTROEM)
---------------------------------
  C     -2.744962   -0.257043    0.000053
  C     -2.352976    1.098290    0.000104
  C     -1.019556    1.437654    0.000113
  C     -0.023558    0.432336    0.000079
  C     -0.414455   -0.945286    0.000041
  C     -1.797516   -1.253366    0.000022
  C      0.576849   -1.957514    0.000029
  C      1.908695   -1.617435    0.000045
  C      2.313262   -0.267651    0.000068
  C      1.366910    0.734245    0.000081
  O      1.704930    2.064629    0.000097
  H     -3.800375   -0.510677    0.000038
  H     -3.109246    1.876699    0.000139
  H     -0.724759    2.480766    0.000151
  H     -2.095913   -2.297954   -0.000023
  H      0.267057   -2.997950    0.000007
  H      2.669587   -2.391684    0.000049
  H      3.368659   -0.009718    0.000080
  H      2.669499    2.142005    0.000057

 Total Charge           Charge          ....    0
 Multiplicity           Mult            ....    1
 Number of Electrons    NEL             ....   76
 Basis Dimension        Dim             ....  389

ORBITAL ENERGIES
----------------

  NO   OCC          E(Eh)            E(eV)
   0   2.0000     -21.709177      -590.7367
   1   2.0000     -12.119153      -329.7789
   2   2.0000     -12.063936      -328.2764
   3   2.0000     -12.060766      -328.1901
   4   2.0000     -12.056785      -328.0818
   5   2.0000     -12.053719      -327.9984
   6   2.0000     -12.052294      -327.9596
   7   2.0000     -12.051314      -327.9329
   8   2.0000     -12.051078      -327.9265
   9   2.0000     -12.049475      -327.8829
  10   2.0000     -12.045915      -327.7860
  11   2.0000      -1.723887       -46.9094
  12   2.0000      -1.403251       -38.1844
  13   2.0000      -1.350756       -36.7559
  14   2.0000      -1.305540       -35.5256
  15   2.0000      -1.274363       -34.6772
  16   2.0000      -1.251574       -34.0571
  17   2.0000      -1.166624       -31.7455
  18   2.0000      -1.132161       -30.8077
  19   2.0000      -1.117734       -30.4151
  20   2.0000      -1.060102       -28.8468
  21   2.0000      -1.017936       -27.6994
  22   2.0000      -0.996672       -27.1208
  23   2.0000      -0.966356       -26.2959
  24   2.0000      -0.955338       -25.9961
  25   2.0000      -0.953971       -25.9589
  26   2.0000      -0.913201       -24.8495
  27   2.0000      -0.907593       -24.6969
  28   2.0000      -0.886794       -24.1309
  29   2.0000      -0.862461       -23.4688
  30   2.0000      -0.843299       -22.9473
  31   2.0000      -0.820781       -22.3346
  32   2.0000      -0.804729       -21.8978
  33   2.0000      -0.795532       -21.6475
  34   2.0000      -0.727330       -19.7917
  35   2.0000      -0.678484       -18.4625
  36   2.0000      -0.632268       -17.2049
  37   2.0000      -0.597243       -16.2518
  38   0.0000      -0.287396        -7.8204
  39   0.0000      -0.259021        -7.0483
  40   0.0000      -0.200674        -5.4606
  41   0.0000      -0.149424        -4.0660
  42   0.0000      -0.131294        -3.5727

MULLIKEN ATOMIC CHARGES
-----------------------
   0 C :   -0.111833
   1 C :   -0.090177
   2 C :   -0.231048
   3 C :    0.068436
   4 C :    0.166012
   5 C :   -0.184687
   6 C :   -0.266442
   7 C :   -0.090922
   8 C :   -0.231985
   9 C :    0.236613
  10 O :   -0.391913
  11 H :    0.117632
  12 H :    0.117562
  13 H :    0.137173
  14 H :    0.113254
  15 H :    0.110413
  16 H :    0.117371
  17 H :    0.099940
  18 H :    0.314599
Sum of atomic charges:   -0.0000000

LOEWDIN ATOMIC CHARGES
----------------------
   0 C :   -0.137609
   1 C :   -0.141473
   2 C :   -0.091284
   3 C :   -0.072469
   4 C :   -0.088640
   5 C :   -0.101136
   6 C :   -0.121188
   7 C :   -0.140127
   8 C :   -0.155054
   9 C :   -0.220876
  10 O :    0.075637
  11 H :    0.142057
  12 H :    0.141842
  13 H :    0.150504
  14 H :    0.145266
  15 H :    0.143953
  16 H :    0.143272
  17 H :    0.139138
  18 H :    0.188186

  Mayer bond orders larger than 0.100000
B(  0-C ,  1-C ) :   1.2717 B(  0-C ,  5-C ) :   1.5651 B(  0-C , 11-H ) :   0.9757
B(  1-C ,  2-C ) :   1.5608 B(  1-C , 12-H ) :   0.9781 B(  2-C ,  3-C ) :   1.2351
B(  2-C , 13-H ) :   0.9653 B(  3-C ,  4-C ) :   1.2870 B(  3-C ,  9-C ) :   1.2013
B(  4-C ,  5-C ) :   1.2267 B(  4-C ,  6-C ) :   1.2200 B(  5-C , 14-H ) :   0.9791
B(  6-C ,  7-C ) :   1.5868 B(  6-C , 15-H ) :   0.9841 B(  7-C ,  8-C ) :   1.2739
B(  7-C , 16-H ) :   0.9703 B(  8-C ,  9-C ) :   1.5066 B(  8-C , 17-H ) :   0.9671
B(  9-C , 10-O ) :   1.1968 B( 10-O , 18-H ) :   0.8854

FINAL SINGLE POINT ENERGY      -461.135991585733

DIPOLE MOMENT
-------------

Method             : SCF
Type of density    : Electron Density
Multiplicity       :   1
Irrep              :   0
Energy             :  -461.1455709107327152 Eh
Relativity type    :
Basis              : AO
                                X                 Y                 Z
Electronic contribution:      1.165677052       1.510416024       0.000017307
Nuclear contribution   :     -0.696290216      -1.579238132      -0.000036694
                        -----------------------------------------
Total Dipole Moment    :      0.469386836      -0.068822108      -0.000019387
                        -----------------------------------------
Magnitude (a.u.)       :      0.474405401
Magnitude (Debye)      :      1.205842699

Rotational constants in cm-1:             0.064907             0.037757             0.023871
Rotational constants in MHz :          1945.853133          1131.925728           715.633359

                             ****ORCA TERMINATED NORMALLY****
TOTAL RUN TIME: 0 days 0 hours 4 minutes 28 seconds 112 msec
