                         Program Version 6.0.0  -   RELEASE  -
|  1> ! wb97x-v def2-tzvp def2/J RIJCOSX DEFGRID2 scfconv7 GCP(DFT/TZ) printgap
|  2> %output
|  3>     printlevel normal
|  4> end
|  5> %cpcm
|  6>     smd true
|  7>     smdsolvent "water"
|  8> end
|  9> * xyz 0 1
| 10> C -2.7449619878682414 -0.2570434903161156 5.3360337787344784e-05
| 11> C -2.352975786021692 1.098289839906908 0.00010360928178021815
| 12> C -1.0195559032030415 1.4376539835114635 0.00011337578599549359
| 13> C -0.023558074778155722 0.4323363265375369 7.938085185421099e-05
| 14> C -0.41445516619028105 -0.9452861626421826 4.106522295721513e-05
| 15> C -1.797515565183985 -1.253366255782421 2.1722025830624023e-05
| 16> C 0.5768490575754528 -1.957513680872796 2.873626198444165e-05
| 17> C 1.90869538443021 -1.6174347617977145 4.522305391703023e-05
| 18> C 2.313262007854394 -0.2676506668448276 6.781591335567314e-05
| 19> C 1.366910353577961 0.7342450137484562 8.059470295628234e-05
| 20> O 1.7049296795176576 2.0646294097850633 9.71759173015138e-05
| 21> H -3.8003748122377368 -0.5106765559177354 3.808054765743668e-05
| 22> H -3.109246217525542 1.8766991436273732 0.00013913826592004097
| 23> H -0.7247589097812017 2.480765750257565 0.00015073560328271853
| 24> H -2.0959127791639607 -2.297953791411288 -2.317634069296111e-05
| 25> H 0.2670571121866475 -2.9979496146313975 7.385751126565282e-06
| 26> H 2.6695874125715005 -2.3916837899144037 4.9139157097435326e-05
| 27> H 3.368659478904337 -0.009717766780443346 7.963996139574912e-05
| 28> H 2.6694991877902665 2.1420047811126386 5.671174750470032e-05
| 29> *
| 30>
| 31>                          ****END OF INPUT****

CARTESIAN COORDINATES (ANGSTROEM)
---------------------------------
  C     -2.744962   -0.257043    0.000053
  C     -2.352976    1.098290    0.000104
  C     -1.019556    1.437654    0.000113
  C     -0.023558    0.432336    0.000079
  C     -0.414455   -0.945286    0.000041
  C     -1.797516   -1.253366    0.000022
  C      0.576849   -1.957514    0.000029
  C      1.908695   -1.617435    0.000045
  C      2.313262   -0.267651    0.000068
  C      1.366910    0.734245    0.000081
  O      1.704930    2.064629    0.000097
  H     -3.800375   -0.510677    0.000038
  H     -3.109246    1.876699    0.000139
  H     -0.724759    2.480766    0.000151
  H     -2.095913   -2.297954   -0.000023
  H      0.267057   -2.997950    0.000007
  H      2.669587   -2.391684    0.000049
  H      3.368659   -0.009718    0.000080
  H      2.669499    2.142005    0.000057

 Total Charge           Charge          ....    0
 Multiplicity           Mult            ....    1
 Number of Electrons    NEL             ....   76
 Basis Dimension        Dim             ....  389

ORBITAL ENERGIES
----------------

  NO   OCC          E(Eh)            E(eV)
   0   2.0000     -21.704300      -590.6040
   1   2.0000     -12.117910      -329.7451
   2   2.0000     -12.065457      -328.3178
   3   2.0000     -12.062761      -328.2444
   4   2.0000     -12.054014      -328.0064
   5   2.0000     -12.053634      -327.9961
   6   2.0000     -12.052900      -327.9761
   7   2.0000     -12.051094      -327.9269
   8   2.0000     -12.049717      -327.8895
   9   2.0000     -12.046554      -327.8034
  10   2.0000     -12.044247      -327.7406
  11   2.0000      -1.719389       -46.7869
  12   2.0000      -1.404929       -38.2301
  13   2.0000      -1.350930       -36.7607
  14   2.0000      -1.306268       -35.5454
  15   2.0000      -1.274523       -34.6815
  16   2.0000      -1.251567       -34.0569
  17   2.0000      -1.163702       -31.6659
  18   2.0000      -1.131739       -30.7962
  19   2.0000      -1.117334       -30.4042
  20   2.0000      -1.058756       -28.8102
  21   2.0000      -1.017556       -27.6891
  22   2.0000      -0.994763       -27.0689
  23   2.0000      -0.966053       -26.2876
  24   2.0000      -0.954420       -25.9711
  25   2.0000      -0.951697       -25.8970
  26   2.0000      -0.910221       -24.7684
  27   2.0000      -0.906138       -24.6573
  28   2.0000      -0.885806       -24.1040
  29   2.0000      -0.858767       -23.3682
  30   2.0000      -0.839498       -22.8439
  31   2.0000      -0.818062       -22.2606
  32   2.0000      -0.803764       -21.8715
  33   2.0000      -0.798675       -21.7331
  34   2.0000      -0.728435       -19.8217
  35   2.0000      -0.681054       -18.5324
  36   2.0000      -0.634109       -17.2550
  37   2.0000      -0.598668       -16.2906
  38   0.0000      -0.288747        -7.8572
  39   0.0000      -0.260654        -7.0927
  40   0.0000      -0.203088        -5.5263
  41   0.0000      -0.145934        -3.9711
  42   0.0000      -0.131304        -3.5730

MULLIKEN ATOMIC CHARGES
-----------------------
   0 C :   -0.152493
   1 C :   -0.141548
   2 C :   -0.276743
   3 C :    0.073839
   4 C :    0.141543
   5 C :   -0.222395
   6 C :   -0.319285
   7 C :   -0.108936
   8 C :   -0.290431
   9 C :    0.246048
  10 O :   -0.459937
  11 H :    0.162564
  12 H :    0.162019
  13 H :    0.160895
  14 H :    0.160913
  15 H :    0.157935
  16 H :    0.163865
  17 H :    0.163686
  18 H :    0.378462
Sum of atomic charges:   -0.0000000

LOEWDIN ATOMIC CHARGES
----------------------
   0 C :   -0.144792
   1 C :   -0.148030
   2 C :   -0.106706
   3 C :   -0.086287
   4 C :   -0.102563
   5 C :   -0.106320
   6 C :   -0.131580
   7 C :   -0.146152
   8 C :   -0.147984
   9 C :   -0.229250
  10 O :    0.056761
  11 H :    0.152412
  12 H :    0.151957
  13 H :    0.154341
  14 H :    0.156577
  15 H :    0.154220
  16 H :    0.153675
  17 H :    0.156410
  18 H :    0.213311

  Mayer bond orders larger than 0.100000
B(  0-C ,  1-C ) :   1.2567 B(  0-C ,  5-C ) :   1.5447 B(  0-C , 11-H ) :   0.9781
B(  1-C ,  2-C ) :   1.5621 B(  1-C , 12-H ) :   0.9792 B(  2-C ,  3-C ) :   1.1924
B(  2-C , 13-H ) :   0.9753 B(  3-C ,  4-C ) :   1.2625 B(  3-C ,  9-C ) :   1.2026
B(  4-C ,  5-C ) :   1.2120 B(  4-C ,  6-C ) :   1.2053 B(  5-C , 14-H ) :   0.9839
B(  6-C ,  7-C ) :   1.5511 B(  6-C , 15-H ) :   0.9913 B(  7-C ,  8-C ) :   1.2351
B(  7-C , 16-H ) :   0.9728 B(  8-C ,  9-C ) :   1.5100 B(  8-C , 17-H ) :   0.9745
B(  9-C , 10-O ) :   1.1694 B( 10-O , 18-H ) :   0.8447

FINAL SINGLE POINT ENERGY      -461.146183042620

DIPOLE MOMENT
-------------

Method             : SCF
Type of density    : Electron Density
Multiplicity       :   1
Irrep              :   0
Energy             :  -461.1557623676197863 Eh
Relativity type    :
Basis              : AO
                                X                 Y                 Z
Electronic contribution:      1.392604211       1.402392458       0.000007933
Nuclear contribution   :     -0.696290216      -1.579238132      -0.000036694
                        -----------------------------------------
Total Dipole Moment    :      0.696313995      -0.176845674      -0.000028761
                        -----------------------------------------
Magnitude (a.u.)       :      0.718420192
Magnitude (Debye)      :      1.826079008

Rotational constants in cm-1:             0.064907             0.037757             0.023871
Rotational constants in MHz :          1945.853133          1131.925728           715.633359

                             ****ORCA TERMINATED NORMALLY****
TOTAL RUN TIME: 0 days 0 hours 4 minutes 35 seconds 615 msec
