                         Program Version 6.0.0  -   RELEASE  -
|  1> ! pbe def2-sv(p) def2/J RI DEFGRID1 loosescf d4 GCP(DFT/SV(P)) printgap
|  2> %output
|  3>     printlevel normal
|  4> end
|  5> * xyz 0 1
|  6> C -3.3745364979 0.6177727447 0.0007198235
|  7> O -1.9540520839 0.760744504 0.0005957074
|  8> C -1.2316239002 -0.3593416725 -0.0003496249
|  9> O -1.7407046758 -1.4665318218 -0.0010555141
| 10> C 0.2239622002 -0.1134666166 -0.0002138118
| 11> C 1.0842194163 -1.2107493931 0.0004469732
| 12> C 2.4521891992 -1.0172043087 0.0007111156
| 13> C 2.9683364441 0.2697969538 0.0002552879
| 14> C 2.1161764709 1.363983256 -0.0004796063
| 15> C 0.746386087 1.1790995107 -0.0006965234
| 16> H -3.7698468759 1.6285892819 0.007897765
| 17> H -3.694321384 0.0641227567 0.8846404442
| 18> H -3.6956077442 0.0764114045 -0.8903117664
| 19> H 0.6552581181 -2.2015921157 0.0007839142
| 20> H 3.1154027331 -1.86796666 0.0012834098
| 21> H 4.0367970459 0.4202213156 0.0004655718
| 22> H 2.521709162 2.3636350782 -0.0008796447
| 23> H 0.0743256442 2.0222433152 -0.0012716022
| 24> *
| 25>
| 26>                          ****END OF INPUT****

CARTESIAN COORDINATES (ANGSTROEM)
---------------------------------
  C     -3.374536    0.617773    0.000720
  O     -1.954052    0.760745    0.000596
  C     -1.231624   -0.359342   -0.000350
  O     -1.740705   -1.466532   -0.001056
  C      0.223962   -0.113467   -0.000214
  C      1.084219   -1.210749    0.000447
  C      2.452189   -1.017204    0.000711
  C      2.968336    0.269797    0.000255
  C      2.116176    1.363983   -0.000480
  C      0.746386    1.179100   -0.000697
  H     -3.769847    1.628589    0.007898
  H     -3.694321    0.064123    0.884640
  H     -3.695608    0.076411   -0.890312
  H      0.655258   -2.201592    0.000784
  H      3.115403   -1.867967    0.001283
  H      4.036797    0.420221    0.000466
  H      2.521709    2.363635   -0.000880
  H      0.074326    2.022243   -0.001272

 Total Charge           Charge          ....    0
 Multiplicity           Mult            ....    1
 Number of Electrons    NEL             ....   72
 Basis Dimension        Dim             ....  156

ORBITAL ENERGIES
----------------

  NO   OCC          E(Eh)            E(eV)
   0   2.0000     -18.802128      -511.6319
   1   2.0000     -18.734481      -509.7911
   2   2.0000     -10.006774      -272.2982
   3   2.0000      -9.942490      -270.5489
   4   2.0000      -9.909571      -269.6531
   5   2.0000      -9.904371      -269.5116
   6   2.0000      -9.902549      -269.4621
   7   2.0000      -9.901264      -269.4271
   8   2.0000      -9.901068      -269.4218
   9   2.0000      -9.900789      -269.4142
  10   2.0000      -1.006994       -27.4017
  11   2.0000      -0.909240       -24.7417
  12   2.0000      -0.786468       -21.4009
  13   2.0000      -0.702884       -19.1265
  14   2.0000      -0.679369       -18.4866
  15   2.0000      -0.655321       -17.8322
  16   2.0000      -0.567246       -15.4355
  17   2.0000      -0.549338       -14.9483
  18   2.0000      -0.510695       -13.8967
  19   2.0000      -0.488944       -13.3048
  20   2.0000      -0.437545       -11.9062
  21   2.0000      -0.435315       -11.8455
  22   2.0000      -0.424291       -11.5455
  23   2.0000      -0.404880       -11.0174
  24   2.0000      -0.388888       -10.5822
  25   2.0000      -0.383212       -10.4277
  26   2.0000      -0.372944       -10.1483
  27   2.0000      -0.364942        -9.9306
  28   2.0000      -0.330376        -8.9900
  29   2.0000      -0.321209        -8.7405
  30   2.0000      -0.312856        -8.5132
  31   2.0000      -0.300214        -8.1692
  32   2.0000      -0.260252        -7.0818
  33   2.0000      -0.239123        -6.5069
  34   2.0000      -0.237401        -6.4600
  35   2.0000      -0.222558        -6.0561
  36   0.0000      -0.075728        -2.0607
  37   0.0000      -0.042118        -1.1461
  38   0.0000       0.020475         0.5572
  39   0.0000       0.041402         1.1266
  40   0.0000       0.057312         1.5596

MULLIKEN ATOMIC CHARGES
-----------------------
   0 C :   -0.103887
   1 O :   -0.244766
   2 C :    0.154882
   3 O :   -0.199780
   4 C :    0.024499
   5 C :   -0.087982
   6 C :   -0.042383
   7 C :   -0.040107
   8 C :   -0.043960
   9 C :   -0.079538
  10 H :    0.120916
  11 H :    0.120589
  12 H :    0.120467
  13 H :    0.065258
  14 H :    0.059309
  15 H :    0.060451
  16 H :    0.057220
  17 H :    0.058813
Sum of atomic charges:   -0.0000000

LOEWDIN ATOMIC CHARGES
----------------------
   0 C :   -0.201152
   1 O :   -0.071018
   2 C :    0.045405
   3 O :   -0.166488
   4 C :   -0.076743
   5 C :   -0.088109
   6 C :   -0.120117
   7 C :   -0.108147
   8 C :   -0.121451
   9 C :   -0.099174
  10 H :    0.120235
  11 H :    0.120613
  12 H :    0.120565
  13 H :    0.135543
  14 H :    0.127108
  15 H :    0.126225
  16 H :    0.125956
  17 H :    0.130748

  Mayer bond orders larger than 0.100000
B(  0-C ,  1-O ) :   0.9386 B(  0-C , 10-H ) :   0.9589 B(  0-C , 11-H ) :   0.9511
B(  0-C , 12-H ) :   0.9514 B(  1-O ,  2-C ) :   1.2382 B(  2-C ,  3-O ) :   2.0569
B(  2-C ,  4-C ) :   0.9474 B(  4-C ,  5-C ) :   1.3897 B(  4-C ,  9-C ) :   1.3634
B(  5-C ,  6-C ) :   1.3582 B(  5-C , 13-H ) :   0.9572 B(  6-C ,  7-C ) :   1.3663
B(  6-C , 14-H ) :   0.9669 B(  7-C ,  8-C ) :   1.3750 B(  7-C , 15-H ) :   0.9644
B(  8-C ,  9-C ) :   1.3600 B(  8-C , 16-H ) :   0.9647 B(  9-C , 17-H ) :   0.9589

Dispersion correction           -0.018307766
FINAL SINGLE POINT ENERGY      -459.163017576966

DIPOLE MOMENT
-------------

Method             : SCF
Type of density    : Electron Density
Multiplicity       :   1
Irrep              :   0
Energy             :  -459.2193610173648608 Eh
Relativity type    :
Basis              : AO
                                X                 Y                 Z
Electronic contribution:      0.916201096      -1.623922471      -0.001810150
Nuclear contribution   :     -0.764247622       2.340287635       0.002440025
                        -----------------------------------------
Total Dipole Moment    :      0.151953475       0.716365164       0.000629875
                        -----------------------------------------
Magnitude (a.u.)       :      0.732304106
Magnitude (Debye)      :      1.861369111

Rotational constants in cm-1:             0.118285             0.028365             0.022978
Rotational constants in MHz :          3546.080399           850.360985           688.853049

                             ****ORCA TERMINATED NORMALLY****
TOTAL RUN TIME: 0 days 0 hours 0 minutes 9 seconds 905 msec
