                         Program Version 6.0.0  -   RELEASE  -
|  1> ! wb97x-v def2-tzvp def2/J RIJCOSX DEFGRID2 scfconv7 GCP(DFT/TZ) printgap
|  2> %output
|  3>     printlevel normal
|  4> end
|  5> * xyz 0 1
|  6> C 1.338092775903727 -1.1583678355342346 0.32456534706913936
|  7> C 0.4588723496072984 -0.16448557068119796 -0.45077131083731736
|  8> C 0.8899784055618498 1.2727838622749441 -0.17843877656327353
|  9> C -0.9889291699718606 -0.43496943031237334 -0.14968672187618148
| 10> C -1.8833608150447856 0.4306754550470771 0.32682199814782775
| 11> H 1.2436986504068253 -0.9905731963320704 1.4034384569367513
| 12> H 2.390936571205583 -1.0364343045444595 0.04999317832263748
| 13> H 1.0486612123379166 -2.193324136429645 0.114549328958812
| 14> H 0.6039172536141446 -0.37381161726368073 -1.5217659633323177
| 15> H 0.76584355128379 1.524292954420856 0.8810367413734816
| 16> H 1.9462009441129489 1.4043478930750402 -0.43212688865039117
| 17> H 0.3094274286020126 1.9899523747122794 -0.7677067519807413
| 18> H -1.3073911920865569 -1.4611097062459741 -0.33917456782399424
| 19> H -2.9075937053647345 0.12219721273337673 0.5189533452424058
| 20> H -1.6349260001188346 1.4667715120375873 0.5392794232365511
| 21> *
| 22>
| 23>                          ****END OF INPUT****

CARTESIAN COORDINATES (ANGSTROEM)
---------------------------------
  C      1.338093   -1.158368    0.324565
  C      0.458872   -0.164486   -0.450771
  C      0.889978    1.272784   -0.178439
  C     -0.988929   -0.434969   -0.149687
  C     -1.883361    0.430675    0.326822
  H      1.243699   -0.990573    1.403438
  H      2.390937   -1.036434    0.049993
  H      1.048661   -2.193324    0.114549
  H      0.603917   -0.373812   -1.521766
  H      0.765844    1.524293    0.881037
  H      1.946201    1.404348   -0.432127
  H      0.309427    1.989952   -0.767707
  H     -1.307391   -1.461110   -0.339175
  H     -2.907594    0.122197    0.518953
  H     -1.634926    1.466772    0.539279

 Total Charge           Charge          ....    0
 Multiplicity           Mult            ....    1
 Number of Electrons    NEL             ....   40
 Basis Dimension        Dim             ....  215

ORBITAL ENERGIES
----------------

  NO   OCC          E(Eh)            E(eV)
   0   2.0000     -12.054589      -328.0220
   1   2.0000     -12.047631      -327.8327
   2   2.0000     -12.036375      -327.5264
   3   2.0000     -12.035156      -327.4932
   4   2.0000     -12.033811      -327.4567
   5   2.0000      -1.328606       -36.1532
   6   2.0000      -1.252031       -34.0695
   7   2.0000      -1.177933       -32.0532
   8   2.0000      -1.099160       -29.9097
   9   2.0000      -0.996555       -27.1176
  10   2.0000      -0.912789       -24.8383
  11   2.0000      -0.896293       -24.3894
  12   2.0000      -0.875931       -23.8353
  13   2.0000      -0.833427       -22.6787
  14   2.0000      -0.814297       -22.1582
  15   2.0000      -0.808349       -21.9963
  16   2.0000      -0.783151       -21.3106
  17   2.0000      -0.770315       -20.9613
  18   2.0000      -0.761305       -20.7161
  19   2.0000      -0.646870       -17.6022
  20   0.0000      -0.192189        -5.2297
  21   0.0000      -0.025535        -0.6948
  22   0.0000      -0.012783        -0.3479
  23   0.0000      -0.006414        -0.1745
  24   0.0000       0.000152         0.0041

MULLIKEN ATOMIC CHARGES
-----------------------
   0 C :   -0.352214
   1 C :    0.074077
   2 C :   -0.385984
   3 C :   -0.160927
   4 C :   -0.279666
   5 H :    0.111184
   6 H :    0.110232
   7 H :    0.110622
   8 H :    0.073293
   9 H :    0.115082
  10 H :    0.114194
  11 H :    0.124165
  12 H :    0.105982
  13 H :    0.118401
  14 H :    0.121559
Sum of atomic charges:   -0.0000000

LOEWDIN ATOMIC CHARGES
----------------------
   0 C :   -0.275026
   1 C :   -0.301227
   2 C :   -0.279366
   3 C :   -0.178313
   4 C :   -0.215817
   5 H :    0.120790
   6 H :    0.117434
   7 H :    0.117806
   8 H :    0.154263
   9 H :    0.120962
  10 H :    0.119659
  11 H :    0.120448
  12 H :    0.140122
  13 H :    0.118684
  14 H :    0.119582

  Mayer bond orders larger than 0.100000
B(  0-C ,  1-C ) :   0.9595 B(  0-C ,  5-H ) :   0.9751 B(  0-C ,  6-H ) :   0.9797
B(  0-C ,  7-H ) :   0.9816 B(  1-C ,  2-C ) :   0.9705 B(  1-C ,  3-C ) :   0.9694
B(  1-C ,  8-H ) :   0.9592 B(  2-C ,  9-H ) :   0.9756 B(  2-C , 10-H ) :   0.9808
B(  2-C , 11-H ) :   0.9827 B(  3-C ,  4-C ) :   1.9651 B(  3-C , 12-H ) :   0.9639
B(  4-C , 13-H ) :   0.9710 B(  4-C , 14-H ) :   0.9670

FINAL SINGLE POINT ENERGY      -196.535746964249

DIPOLE MOMENT
-------------

Method             : SCF
Type of density    : Electron Density
Multiplicity       :   1
Irrep              :   0
Energy             :  -196.5454614528487411 Eh
Relativity type    :
Basis              : AO
                                X                 Y                 Z
Electronic contribution:     -2.124191595      -0.503235713      -0.636940198
Nuclear contribution   :      2.273021848       0.450702150       0.563538516
                        -----------------------------------------
Total Dipole Moment    :      0.148830253      -0.052533563      -0.073401682
                        -----------------------------------------
Magnitude (a.u.)       :      0.174063283
Magnitude (Debye)      :      0.442433705

Rotational constants in cm-1:             0.243992             0.131048             0.096222
Rotational constants in MHz :          7314.692676          3928.728633          2884.649287

                             ****ORCA TERMINATED NORMALLY****
TOTAL RUN TIME: 0 days 0 hours 1 minutes 11 seconds 396 msec
