                         Program Version 6.0.0  -   RELEASE  -
|  1> ! wb97x-v def2-tzvp def2/J RIJCOSX DEFGRID2 scfconv7 GCP(DFT/TZ) printgap
|  2> %output
|  3>     printlevel normal
|  4> end
|  5> %cpcm
|  6>     smd true
|  7>     smdsolvent "water"
|  8> end
|  9> * xyz 0 1
| 10> C 1.338092775903727 -1.1583678355342346 0.32456534706913936
| 11> C 0.4588723496072984 -0.16448557068119796 -0.45077131083731736
| 12> C 0.8899784055618498 1.2727838622749441 -0.17843877656327353
| 13> C -0.9889291699718606 -0.43496943031237334 -0.14968672187618148
| 14> C -1.8833608150447856 0.4306754550470771 0.32682199814782775
| 15> H 1.2436986504068253 -0.9905731963320704 1.4034384569367513
| 16> H 2.390936571205583 -1.0364343045444595 0.04999317832263748
| 17> H 1.0486612123379166 -2.193324136429645 0.114549328958812
| 18> H 0.6039172536141446 -0.37381161726368073 -1.5217659633323177
| 19> H 0.76584355128379 1.524292954420856 0.8810367413734816
| 20> H 1.9462009441129489 1.4043478930750402 -0.43212688865039117
| 21> H 0.3094274286020126 1.9899523747122794 -0.7677067519807413
| 22> H -1.3073911920865569 -1.4611097062459741 -0.33917456782399424
| 23> H -2.9075937053647345 0.12219721273337673 0.5189533452424058
| 24> H -1.6349260001188346 1.4667715120375873 0.5392794232365511
| 25> *
| 26>
| 27>                          ****END OF INPUT****

CARTESIAN COORDINATES (ANGSTROEM)
---------------------------------
  C      1.338093   -1.158368    0.324565
  C      0.458872   -0.164486   -0.450771
  C      0.889978    1.272784   -0.178439
  C     -0.988929   -0.434969   -0.149687
  C     -1.883361    0.430675    0.326822
  H      1.243699   -0.990573    1.403438
  H      2.390937   -1.036434    0.049993
  H      1.048661   -2.193324    0.114549
  H      0.603917   -0.373812   -1.521766
  H      0.765844    1.524293    0.881037
  H      1.946201    1.404348   -0.432127
  H      0.309427    1.989952   -0.767707
  H     -1.307391   -1.461110   -0.339175
  H     -2.907594    0.122197    0.518953
  H     -1.634926    1.466772    0.539279

 Total Charge           Charge          ....    0
 Multiplicity           Mult            ....    1
 Number of Electrons    NEL             ....   40
 Basis Dimension        Dim             ....  215

ORBITAL ENERGIES
----------------

  NO   OCC          E(Eh)            E(eV)
   0   2.0000     -12.046856      -327.8116
   1   2.0000     -12.044728      -327.7537
   2   2.0000     -12.031302      -327.3884
   3   2.0000     -12.027333      -327.2804
   4   2.0000     -12.024681      -327.2082
   5   2.0000      -1.323148       -36.0047
   6   2.0000      -1.247540       -33.9473
   7   2.0000      -1.169457       -31.8225
   8   2.0000      -1.092897       -29.7393
   9   2.0000      -0.990951       -26.9651
  10   2.0000      -0.907266       -24.6880
  11   2.0000      -0.890896       -24.2425
  12   2.0000      -0.868216       -23.6254
  13   2.0000      -0.826052       -22.4780
  14   2.0000      -0.806922       -21.9575
  15   2.0000      -0.799655       -21.7597
  16   2.0000      -0.774588       -21.0776
  17   2.0000      -0.763089       -20.7647
  18   2.0000      -0.753958       -20.5162
  19   2.0000      -0.645851       -17.5745
  20   0.0000      -0.190851        -5.1933
  21   0.0000      -0.017293        -0.4706
  22   0.0000      -0.005570        -0.1516
  23   0.0000       0.002189         0.0596
  24   0.0000       0.009194         0.2502

MULLIKEN ATOMIC CHARGES
-----------------------
   0 C :   -0.403337
   1 C :    0.083643
   2 C :   -0.420513
   3 C :   -0.214074
   4 C :   -0.366464
   5 H :    0.120398
   6 H :    0.129393
   7 H :    0.130548
   8 H :    0.089854
   9 H :    0.125129
  10 H :    0.133272
  11 H :    0.134228
  12 H :    0.144431
  13 H :    0.156169
  14 H :    0.157322
Sum of atomic charges:   -0.0000000

LOEWDIN ATOMIC CHARGES
----------------------
   0 C :   -0.280377
   1 C :   -0.300522
   2 C :   -0.284012
   3 C :   -0.185429
   4 C :   -0.237215
   5 H :    0.121341
   6 H :    0.121248
   7 H :    0.121450
   8 H :    0.159199
   9 H :    0.122614
  10 H :    0.122925
  11 H :    0.122008
  12 H :    0.147460
  13 H :    0.123931
  14 H :    0.125377

  Mayer bond orders larger than 0.100000
B(  0-C ,  1-C ) :   0.9520 B(  0-C ,  5-H ) :   0.9729 B(  0-C ,  6-H ) :   0.9775
B(  0-C ,  7-H ) :   0.9787 B(  1-C ,  2-C ) :   0.9699 B(  1-C ,  3-C ) :   0.9635
B(  1-C ,  8-H ) :   0.9553 B(  2-C ,  9-H ) :   0.9713 B(  2-C , 10-H ) :   0.9783
B(  2-C , 11-H ) :   0.9795 B(  3-C ,  4-C ) :   1.9399 B(  3-C , 12-H ) :   0.9636
B(  4-C , 13-H ) :   0.9698 B(  4-C , 14-H ) :   0.9651

FINAL SINGLE POINT ENERGY      -196.533780132971

DIPOLE MOMENT
-------------

Method             : SCF
Type of density    : Electron Density
Multiplicity       :   1
Irrep              :   0
Energy             :  -196.5434946215705736 Eh
Relativity type    :
Basis              : AO
                                X                 Y                 Z
Electronic contribution:     -2.052382632      -0.541845645      -0.684751646
Nuclear contribution   :      2.273021848       0.450702150       0.563538516
                        -----------------------------------------
Total Dipole Moment    :      0.220639216      -0.091143494      -0.121213130
                        -----------------------------------------
Magnitude (a.u.)       :      0.267733866
Magnitude (Debye)      :      0.680525405

Rotational constants in cm-1:             0.243992             0.131048             0.096222
Rotational constants in MHz :          7314.692676          3928.728633          2884.649287

                             ****ORCA TERMINATED NORMALLY****
TOTAL RUN TIME: 0 days 0 hours 1 minutes 11 seconds 440 msec
